
             +---------------------------------------------------+
             |                                                   |
             |                   WANNIER90                       |
             |                                                   |
             +---------------------------------------------------+
             |                                                   |
             |        Welcome to the Maximally-Localized         |
             |        Generalized Wannier Functions code         |
             |            http://www.wannier.org                 |
             |                                                   |
             |                                                   |
             |  Wannier90 Developer Group:                       |
             |    Giovanni Pizzi    (EPFL)                       |
             |    Valerio Vitale    (Cambridge)                  |
             |    David Vanderbilt  (Rutgers University)         |
             |    Nicola Marzari    (EPFL)                       |
             |    Ivo Souza         (Universidad del Pais Vasco) |
             |    Arash A. Mostofi  (Imperial College London)    |
             |    Jonathan R. Yates (University of Oxford)       |
             |                                                   |
             |  For the full list of Wannier90 3.x authors,      |
             |  please check the code documentation and the      |
             |  README on the GitHub page of the code            |
             |                                                   |
             |                                                   |
             |  Please cite                                      |
             |                                                   |
             |  [ref] "Wannier90 as a community code:            |
             |        new features and applications",            |
             |        G. Pizzi et al., J. Phys. Cond. Matt. 32,  |
             |        165902 (2020).                             |
             |        http://doi.org/10.1088/1361-648X/ab51ff    |
             |                                                   |
             |  in any publications arising from the use of      |
             |  this code. For the method please cite            |
             |                                                   |
             |  [ref] "Maximally Localized Generalised Wannier   |
             |         Functions for Composite Energy Bands"     |
             |         N. Marzari and D. Vanderbilt              |
             |         Phys. Rev. B 56 12847 (1997)              |
             |                                                   |
             |  [ref] "Maximally Localized Wannier Functions     |
             |         for Entangled Energy Bands"               |
             |         I. Souza, N. Marzari and D. Vanderbilt    |
             |         Phys. Rev. B 65 035109 (2001)             |
             |                                                   |
             |                                                   |
             | Copyright (c) 1996-2020                           |
             |        The Wannier90 Developer Group and          |
             |        individual contributors                    |
             |                                                   |
             |      Release: 3.1.0        5th March    2020      |
             |                                                   |
             | This program is free software; you can            |
             | redistribute it and/or modify it under the terms  |
             | of the GNU General Public License as published by |
             | the Free Software Foundation; either version 2 of |
             | the License, or (at your option) any later version|
             |                                                   |
             | This program is distributed in the hope that it   |
             | will be useful, but WITHOUT ANY WARRANTY; without |
             | even the implied warranty of MERCHANTABILITY or   |
             | FITNESS FOR A PARTICULAR PURPOSE. See the GNU     |
             | General Public License for more details.          |
             |                                                   |
             | You should have received a copy of the GNU General|
             | Public License along with this program; if not,   |
             | write to the Free Software Foundation, Inc.,      |
             | 675 Mass Ave, Cambridge, MA 02139, USA.           |
             |                                                   |
             +---------------------------------------------------+
             |    Execution started on 26Jan2022 at 10:40:50     |
             +---------------------------------------------------+
 
 ******************************************************************************
 * -> Using CODATA 2006 constant values                                       *
 *    (http://physics.nist.gov/cuu/Constants/index.html)                      *
 * -> Using Bohr value from CODATA                                            *
 ******************************************************************************
 

 Running in serial (with serial executable)

                                    ------
                                    SYSTEM
                                    ------

                            Lattice Vectors (Bohr)
                    a_1    -5.131500   0.000000   5.131500
                    a_2     0.000000   5.131500   5.131500
                    a_3    -5.131500   5.131500   0.000000

                   Unit Cell Volume:     270.24832  (Bohr^3)

                      Reciprocal-Space Vectors (Bohr^-1)
                    b_1    -0.612217  -0.612217   0.612217
                    b_2     0.612217   0.612217   0.612217
                    b_3    -0.612217   0.612217  -0.612217
  
 *----------------------------------------------------------------------------*
 |   Site       Fractional Coordinate          Cartesian Coordinate (Bohr)    |
 +----------------------------------------------------------------------------+
 | Si   1  -0.25000   0.75000  -0.25000   |    2.56575   2.56575   2.56575    |
 | Si   2   0.00000   0.00000   0.00000   |    0.00000   0.00000   0.00000    |
 *----------------------------------------------------------------------------*
                                -----------
                                PROJECTIONS
                                -----------
  
 +----------------------------------------------------------------------------+
 |     Frac. Coord.   l mr  r        z-axis               x-axis          Z/a |
 +----------------------------------------------------------------------------+
 |  0.54  0.76  0.72  0  1  1  0.000  0.000  1.000  1.000  0.000  0.000   1.0 |
 |  0.55  0.96  0.88  0  1  1  0.000  0.000  1.000  1.000  0.000  0.000   1.0 |
 |  0.18  0.74  0.42  0  1  1  0.000  0.000  1.000  1.000  0.000  0.000   1.0 |
 |  0.72  0.26  0.96  0  1  1  0.000  0.000  1.000  1.000  0.000  0.000   1.0 |
 +----------------------------------------------------------------------------+
  
                                ------------
                                K-POINT GRID
                                ------------
  
             Grid size =  4 x  4 x  4      Total points =   64
  
 *----------------------------------------------------------------------------*
 | k-point      Fractional Coordinate        Cartesian Coordinate (Bohr^-1)   |
 +----------------------------------------------------------------------------+
 |     1    0.00000   0.00000   0.00000   |    0.00000   0.00000   0.00000    |
 |     2    0.00000   0.00000   0.25000   |   -0.15305   0.15305  -0.15305    |
 |     3    0.00000   0.00000   0.50000   |   -0.30611   0.30611  -0.30611    |
 |     4    0.00000   0.00000   0.75000   |   -0.45916   0.45916  -0.45916    |
 |     5    0.00000   0.25000   0.00000   |    0.15305   0.15305   0.15305    |
 |     6    0.00000   0.25000   0.25000   |    0.00000   0.30611   0.00000    |
 |     7    0.00000   0.25000   0.50000   |   -0.15305   0.45916  -0.15305    |
 |     8    0.00000   0.25000   0.75000   |   -0.30611   0.61222  -0.30611    |
 |     9    0.00000   0.50000   0.00000   |    0.30611   0.30611   0.30611    |
 |    10    0.00000   0.50000   0.25000   |    0.15305   0.45916   0.15305    |
 |    11    0.00000   0.50000   0.50000   |    0.00000   0.61222   0.00000    |
 |    12    0.00000   0.50000   0.75000   |   -0.15305   0.76527  -0.15305    |
 |    13    0.00000   0.75000   0.00000   |    0.45916   0.45916   0.45916    |
 |    14    0.00000   0.75000   0.25000   |    0.30611   0.61222   0.30611    |
 |    15    0.00000   0.75000   0.50000   |    0.15305   0.76527   0.15305    |
 |    16    0.00000   0.75000   0.75000   |    0.00000   0.91833   0.00000    |
 |    17    0.25000   0.00000   0.00000   |   -0.15305  -0.15305   0.15305    |
 |    18    0.25000   0.00000   0.25000   |   -0.30611   0.00000   0.00000    |
 |    19    0.25000   0.00000   0.50000   |   -0.45916   0.15305  -0.15305    |
 |    20    0.25000   0.00000   0.75000   |   -0.61222   0.30611  -0.30611    |
 |    21    0.25000   0.25000   0.00000   |    0.00000   0.00000   0.30611    |
 |    22    0.25000   0.25000   0.25000   |   -0.15305   0.15305   0.15305    |
 |    23    0.25000   0.25000   0.50000   |   -0.30611   0.30611   0.00000    |
 |    24    0.25000   0.25000   0.75000   |   -0.45916   0.45916  -0.15305    |
 |    25    0.25000   0.50000   0.00000   |    0.15305   0.15305   0.45916    |
 |    26    0.25000   0.50000   0.25000   |    0.00000   0.30611   0.30611    |
 |    27    0.25000   0.50000   0.50000   |   -0.15305   0.45916   0.15305    |
 |    28    0.25000   0.50000   0.75000   |   -0.30611   0.61222   0.00000    |
 |    29    0.25000   0.75000   0.00000   |    0.30611   0.30611   0.61222    |
 |    30    0.25000   0.75000   0.25000   |    0.15305   0.45916   0.45916    |
 |    31    0.25000   0.75000   0.50000   |    0.00000   0.61222   0.30611    |
 |    32    0.25000   0.75000   0.75000   |   -0.15305   0.76527   0.15305    |
 |    33    0.50000   0.00000   0.00000   |   -0.30611  -0.30611   0.30611    |
 |    34    0.50000   0.00000   0.25000   |   -0.45916  -0.15305   0.15305    |
 |    35    0.50000   0.00000   0.50000   |   -0.61222   0.00000   0.00000    |
 |    36    0.50000   0.00000   0.75000   |   -0.76527   0.15305  -0.15305    |
 |    37    0.50000   0.25000   0.00000   |   -0.15305  -0.15305   0.45916    |
 |    38    0.50000   0.25000   0.25000   |   -0.30611   0.00000   0.30611    |
 |    39    0.50000   0.25000   0.50000   |   -0.45916   0.15305   0.15305    |
 |    40    0.50000   0.25000   0.75000   |   -0.61222   0.30611   0.00000    |
 |    41    0.50000   0.50000   0.00000   |    0.00000   0.00000   0.61222    |
 |    42    0.50000   0.50000   0.25000   |   -0.15305   0.15305   0.45916    |
 |    43    0.50000   0.50000   0.50000   |   -0.30611   0.30611   0.30611    |
 |    44    0.50000   0.50000   0.75000   |   -0.45916   0.45916   0.15305    |
 |    45    0.50000   0.75000   0.00000   |    0.15305   0.15305   0.76527    |
 |    46    0.50000   0.75000   0.25000   |    0.00000   0.30611   0.61222    |
 |    47    0.50000   0.75000   0.50000   |   -0.15305   0.45916   0.45916    |
 |    48    0.50000   0.75000   0.75000   |   -0.30611   0.61222   0.30611    |
 |    49    0.75000   0.00000   0.00000   |   -0.45916  -0.45916   0.45916    |
 |    50    0.75000   0.00000   0.25000   |   -0.61222  -0.30611   0.30611    |
 |    51    0.75000   0.00000   0.50000   |   -0.76527  -0.15305   0.15305    |
 |    52    0.75000   0.00000   0.75000   |   -0.91833   0.00000   0.00000    |
 |    53    0.75000   0.25000   0.00000   |   -0.30611  -0.30611   0.61222    |
 |    54    0.75000   0.25000   0.25000   |   -0.45916  -0.15305   0.45916    |
 |    55    0.75000   0.25000   0.50000   |   -0.61222   0.00000   0.30611    |
 |    56    0.75000   0.25000   0.75000   |   -0.76527   0.15305   0.15305    |
 |    57    0.75000   0.50000   0.00000   |   -0.15305  -0.15305   0.76527    |
 |    58    0.75000   0.50000   0.25000   |   -0.30611   0.00000   0.61222    |
 |    59    0.75000   0.50000   0.50000   |   -0.45916   0.15305   0.45916    |
 |    60    0.75000   0.50000   0.75000   |   -0.61222   0.30611   0.30611    |
 |    61    0.75000   0.75000   0.00000   |    0.00000   0.00000   0.91833    |
 |    62    0.75000   0.75000   0.25000   |   -0.15305   0.15305   0.76527    |
 |    63    0.75000   0.75000   0.50000   |   -0.30611   0.30611   0.61222    |
 |    64    0.75000   0.75000   0.75000   |   -0.45916   0.45916   0.45916    |
 *----------------------------------------------------------------------------*
  
  
 *---------------------------------- MAIN ------------------------------------*
 |  Number of Wannier Functions               :                 4             |
 |  Number of Objective Wannier Functions     :                 4             |
 |  Number of input Bloch states              :                 4             |
 |  Output verbosity (1=low, 5=high)          :                 2             |
 |  Timing Level (1=low, 5=high)              :                 1             |
 |  Optimisation (0=memory, 3=speed)          :                 3             |
 |  Length Unit                               :              Bohr             |
 |  Post-processing setup (write *.nnkp)      :                 F             |
 |  Using Gamma-only branch of algorithms     :                 F             |
 *----------------------------------------------------------------------------*
 *------------------------------- WANNIERISE ---------------------------------*
 |  Total number of iterations                :              5000             |
 |  Number of CG steps before reset           :                 5             |
 |  Trial step length for line search         :             2.000             |
 |  Convergence tolerence                     :         0.100E-09             |
 |  Convergence window                        :                -1             |
 |  Iterations between writing output         :                 1             |
 |  Iterations between backing up to disk     :               100             |
 |  Write r^2_nm to file                      :                 F             |
 |  Write xyz WF centres to file              :                 T             |
 |  Write on-site energies <0n|H|0n> to file  :                 F             |
 |  Use guiding centre to control phases      :                 F             |
 |  Use phases for initial projections        :                 F             |
 *----------------------------------------------------------------------------*
 Time to read parameters        0.007 (sec)

 *---------------------------------- K-MESH ----------------------------------*
 +----------------------------------------------------------------------------+
 |                    Distance to Nearest-Neighbour Shells                    |
 |                    ------------------------------------                    |
 |          Shell             Distance (Bohr^-1)         Multiplicity         |
 |          -----             ------------------         ------------         |
 |             1                   0.265098                      8            |
 |             2                   0.306109                      6            |
 |             3                   0.432903                     12            |
 |             4                   0.507624                     24            |
 |             5                   0.530196                      8            |
 |             6                   0.612217                      6            |
 |             7                   0.667148                     24            |
 |             8                   0.684480                     24            |
 |             9                   0.749810                     24            |
 |            10                   0.795293                     32            |
 |            11                   0.865806                     12            |
 |            12                   0.905481                     48            |
 |            13                   0.918326                     30            |
 |            14                   0.968000                     24            |
 |            15                   1.003644                     24            |
 |            16                   1.015247                     24            |
 |            17                   1.060391                      8            |
 |            18                   1.093026                     48            |
 |            19                   1.103690                     24            |
 |            20                   1.145354                     48            |
 |            21                   1.175632                     72            |
 |            22                   1.224434                      6            |
 |            23                   1.252803                     24            |
 |            24                   1.262118                     48            |
 |            25                   1.298709                     36            |
 |            26                   1.325489                     56            |
 |            27                   1.334296                     24            |
 |            28                   1.368959                     24            |
 |            29                   1.394391                     72            |
 |            30                   1.402766                     48            |
 |            31                   1.435777                     24            |
 |            32                   1.460045                     48            |
 |            33                   1.499620                     24            |
 |            34                   1.522871                     72            |
 |            35                   1.530543                     30            |
 |            36                   1.560854                     72            |
 +----------------------------------------------------------------------------+
 | The b-vectors are chosen automatically                                     |
 | Shell:  1 w_b    5.3360380     (Bohr^2)                                    |
 | The following shells are used:   1                                         |
 +----------------------------------------------------------------------------+
 |                        Shell   # Nearest-Neighbours                        |
 |                        -----   --------------------                        |
 |                          1               8                                 |
 +----------------------------------------------------------------------------+
 | Completeness relation is fully satisfied [Eq. (B1), PRB 56, 12847 (1997)]  |
 +----------------------------------------------------------------------------+
 |                 b_k Vectors (Bohr^-1) and Weights (Bohr^2)                 |
 |                 ------------------------------------------                 |
 |            No.         b_k(x)      b_k(y)      b_k(z)        w_b           |
 |            ---        --------------------------------     --------        |
 |             1        -0.153054    0.153054   -0.153054     5.336038        |
 |             2         0.153054    0.153054    0.153054     5.336038        |
 |             3        -0.153054   -0.153054    0.153054     5.336038        |
 |             4        -0.153054    0.153054    0.153054     5.336038        |
 |             5         0.153054   -0.153054    0.153054     5.336038        |
 |             6        -0.153054   -0.153054   -0.153054     5.336038        |
 |             7         0.153054    0.153054   -0.153054     5.336038        |
 |             8         0.153054   -0.153054   -0.153054     5.336038        |
 +----------------------------------------------------------------------------+
 |                           b_k Directions (Bohr^-1)                         |
 |                           ------------------------                         |
 |            No.           x           y           z                         |
 |            ---        --------------------------------                     |
 |             1        -0.153054    0.153054   -0.153054                     |
 |             2         0.153054    0.153054    0.153054                     |
 |             3        -0.153054   -0.153054    0.153054                     |
 |             4        -0.153054    0.153054    0.153054                     |
 +----------------------------------------------------------------------------+
  
 Time to get kmesh              0.030 (sec)
 *============================================================================*
 |                              MEMORY ESTIMATE                               |
 |         Maximum RAM allocated during each phase of the calculation         |
 *============================================================================*
 |                            Wannierise:            0.42 Mb                  |
 |                                                                            |
 |   N.B. by setting optimisation=0 memory usage will be reduced to:          |
 |                            Wannierise:            0.29 Mb                  |
 |   However, this will result in more i/o and slow down the calculation      |
 |                          plot_wannier:            0.42 Mb                  |
 *----------------------------------------------------------------------------*
  
 Starting a new Wannier90 calculation ...


 Reading overlaps from si.mmn    :  Created on 18Jan2022 at 11:22:32

 Reading projections from si.amn :  Created on 18Jan2022 at 11:22:31

 Time to read overlaps          0.012 (sec)

 Writing checkpoint file si.chk... done


 *------------------------------- WANNIERISE ---------------------------------*
 +--------------------------------------------------------------------+<-- CONV
 | Iter  Delta Spread     RMS Gradient      Spread (Bohr^2)     Time  |<-- CONV
 +--------------------------------------------------------------------+<-- CONV

 ------------------------------------------------------------------------------
 Initial State
  WF centre and spread    1  ( -8.734955,  3.915149,  4.021344 )    15.74203451
  WF centre and spread    2  (  0.117054, -1.477386, -2.468449 )   133.09413320
  WF centre and spread    3  ( -5.623903,  1.565716,  4.797170 )    12.84755178
  WF centre and spread    4  ( -6.042384,  2.693084,  2.065064 )    18.24863054
  Sum of centres and spreads (-20.284188,  6.696562,  8.415129 )   179.93235003

      0     0.180E+03     0.0000000000      179.9323500268       0.00  <-- CONV
        O_D=    127.6437822 O_OD=     31.4474029 O_TOT=    179.9323500 <-- SPRD
 ------------------------------------------------------------------------------
 Cycle:      1
  WF centre and spread    1  ( -8.684246,  3.976494,  4.085964 )    13.57158446
  WF centre and spread    2  ( -0.239786, -1.878671, -2.875914 )   119.14809098
  WF centre and spread    3  ( -5.661054,  1.561916,  4.744185 )    11.71133437
  WF centre and spread    4  ( -6.094733,  2.749479,  2.094332 )    14.32243538
  Sum of centres and spreads (-20.679819,  6.409219,  8.048567 )   158.75344519

      1    -0.212E+02     6.7993394133      158.7534451894       0.00  <-- CONV
        O_D=    108.7287388 O_OD=     29.1835414 O_TOT=    158.7534452 <-- SPRD
 Delta: O_D= -0.1891504E+02 O_OD= -0.2263861E+01 O_TOT= -0.2117890E+02 <-- DLTA
 ------------------------------------------------------------------------------
 Cycle:      2
  WF centre and spread    1  ( -8.662932,  4.004906,  4.145785 )    11.61075839
  WF centre and spread    2  ( -1.117731, -1.527827, -2.402103 )   119.69484566
  WF centre and spread    3  ( -5.716828,  1.556683,  4.683791 )    10.58543657
  WF centre and spread    4  ( -6.179378,  2.914959,  2.044027 )    11.39870179
  Sum of centres and spreads (-21.676869,  6.948721,  8.471500 )   153.28974241

      2    -0.546E+01     3.2556321762      153.2897424106       0.00  <-- CONV
        O_D=    106.5211854 O_OD=     25.9273921 O_TOT=    153.2897424 <-- SPRD
 Delta: O_D= -0.2207553E+01 O_OD= -0.3256149E+01 O_TOT= -0.5463703E+01 <-- DLTA
 ------------------------------------------------------------------------------
 Cycle:      3
  WF centre and spread    1  ( -8.676210,  4.037254,  4.162627 )    10.66532173
  WF centre and spread    2  ( -1.482881, -1.468115, -2.070209 )   114.64888281
  WF centre and spread    3  ( -5.743788,  1.542219,  4.655588 )    10.91023121
  WF centre and spread    4  ( -6.214863,  3.042726,  1.999026 )    10.82121546
  Sum of centres and spreads (-22.117742,  7.154085,  8.747032 )   147.04565121

      3    -0.624E+01     4.0907881126      147.0456512104       0.01  <-- CONV
        O_D=    100.3502194 O_OD=     25.8542669 O_TOT=    147.0456512 <-- SPRD
 Delta: O_D= -0.6170966E+01 O_OD= -0.7312517E-01 O_TOT= -0.6244091E+01 <-- DLTA
 ------------------------------------------------------------------------------
 Cycle:      4
  WF centre and spread    1  ( -8.706749,  4.057096,  4.140287 )    10.37489171
  WF centre and spread    2  ( -1.439191, -1.629767, -1.943264 )   111.54505214
  WF centre and spread    3  ( -5.758749,  1.540308,  4.641389 )    11.41540208
  WF centre and spread    4  ( -6.227347,  3.121264,  1.943305 )    10.89626335
  Sum of centres and spreads (-22.132036,  7.088902,  8.781718 )   144.23160927

      4    -0.281E+01     4.0346227928      144.2316092707       0.01  <-- CONV
        O_D=     96.8624338 O_OD=     26.5280106 O_TOT=    144.2316093 <-- SPRD
 Delta: O_D= -0.3487786E+01 O_OD=  0.6737437E+00 O_TOT= -0.2814042E+01 <-- DLTA
 ------------------------------------------------------------------------------
 Cycle:      5
  WF centre and spread    1  ( -8.707833,  4.057787,  4.139365 )    10.35730443
  WF centre and spread    2  ( -1.757295, -1.314859, -1.616557 )   112.45067583
  WF centre and spread    3  ( -5.759503,  1.540545,  4.640413 )    11.42388937
  WF centre and spread    4  ( -6.227711,  3.123983,  1.940853 )    10.87870788
  Sum of centres and spreads (-22.452341,  7.407456,  9.104074 )   145.11057750

      5     0.879E+00     3.8682371751      145.1105775034       0.01  <-- CONV
        O_D=     97.7535869 O_OD=     26.5158256 O_TOT=    145.1105775 <-- SPRD
 Delta: O_D=  0.8911532E+00 O_OD= -0.1218493E-01 O_TOT=  0.8789682E+00 <-- DLTA
 ------------------------------------------------------------------------------
 Cycle:      6
  WF centre and spread    1  ( -8.778492,  4.088182,  4.081250 )     9.44369334
  WF centre and spread    2  ( -1.604281, -1.586692, -1.301090 )   104.44066608
  WF centre and spread    3  ( -5.807730,  1.561550,  4.571814 )    12.00685798
  WF centre and spread    4  ( -6.257248,  3.267028,  1.800302 )     9.85791140
  Sum of centres and spreads (-22.447750,  7.330068,  9.152276 )   135.74912881

      6    -0.936E+01     4.5170996862      135.7491288083       0.01  <-- CONV
        O_D=     89.0155114 O_OD=     25.8924524 O_TOT=    135.7491288 <-- SPRD
 Delta: O_D= -0.8738075E+01 O_OD= -0.6233732E+00 O_TOT= -0.9361449E+01 <-- DLTA
 ------------------------------------------------------------------------------
 Cycle:      7
  WF centre and spread    1  ( -8.793999,  4.077183,  4.088234 )     8.59014159
  WF centre and spread    2  ( -1.623176, -1.659297, -1.240346 )    98.77215042
  WF centre and spread    3  ( -5.832809,  1.541259,  4.495438 )    12.06673607
  WF centre and spread    4  ( -6.249237,  3.339988,  1.718516 )     8.15157671
  Sum of centres and spreads (-22.499221,  7.299133,  9.061842 )   127.58060479

      7    -0.817E+01     3.2296345555      127.5806047920       0.01  <-- CONV
        O_D=     83.6246352 O_OD=     23.1148047 O_TOT=    127.5806048 <-- SPRD
 Delta: O_D= -0.5390876E+01 O_OD= -0.2777648E+01 O_TOT= -0.8168524E+01 <-- DLTA
 ------------------------------------------------------------------------------
 Cycle:      8
  WF centre and spread    1  ( -8.859575,  4.006717,  4.052485 )    10.60254207
  WF centre and spread    2  ( -1.836288, -1.508997, -0.507317 )    93.21117374
  WF centre and spread    3  ( -6.112889,  1.435665,  4.088486 )    17.03837296
  WF centre and spread    4  ( -6.270442,  3.498019,  1.531686 )     8.95406329
  Sum of centres and spreads (-23.079193,  7.431404,  9.165340 )   129.80615206

      8     0.223E+01     2.2504705341      129.8061520553       0.01  <-- CONV
        O_D=     80.1388918 O_OD=     28.8260953 O_TOT=    129.8061521 <-- SPRD
 Delta: O_D= -0.3485743E+01 O_OD=  0.5711291E+01 O_TOT=  0.2225547E+01 <-- DLTA
 ------------------------------------------------------------------------------
 Cycle:      9
  WF centre and spread    1  ( -8.861069,  4.007980,  4.045429 )    10.57257506
  WF centre and spread    2  ( -1.853283, -1.521515, -0.517664 )    92.45609817
  WF centre and spread    3  ( -6.044361,  1.404291,  4.171851 )    15.43523030
  WF centre and spread    4  ( -6.275225,  3.502143,  1.526056 )     8.91680526
  Sum of centres and spreads (-23.033938,  7.392899,  9.225672 )   127.38070879

      9    -0.243E+01     8.3413966404      127.3807087936       0.02  <-- CONV
        O_D=     77.9406971 O_OD=     28.5988468 O_TOT=    127.3807088 <-- SPRD
 Delta: O_D= -0.2198195E+01 O_OD= -0.2272485E+00 O_TOT= -0.2425443E+01 <-- DLTA
 ------------------------------------------------------------------------------
 Cycle:     10
  WF centre and spread    1  ( -8.863362,  4.010763,  4.019727 )    10.26907613
  WF centre and spread    2  ( -1.922448, -1.565314, -0.526020 )    87.81931989
  WF centre and spread    3  ( -6.030049,  1.454276,  4.247874 )    13.28014793
  WF centre and spread    4  ( -6.297826,  3.529398,  1.493147 )     8.54770163
  Sum of centres and spreads (-23.113685,  7.429123,  9.234728 )   119.91624559

     10    -0.746E+01     4.3098464550      119.9162455873       0.02  <-- CONV
        O_D=     72.1255799 O_OD=     26.9495008 O_TOT=    119.9162456 <-- SPRD
 Delta: O_D= -0.5815117E+01 O_OD= -0.1649346E+01 O_TOT= -0.7464463E+01 <-- DLTA
 ------------------------------------------------------------------------------
 Cycle:     11
  WF centre and spread    1  ( -8.866299,  4.021573,  3.997838 )    10.07650342
  WF centre and spread    2  ( -1.976682, -1.573797, -0.394081 )    84.65043948
  WF centre and spread    3  ( -6.047546,  1.464343,  4.252044 )    12.60830755
  WF centre and spread    4  ( -6.327432,  3.569288,  1.444001 )     8.23397974
  Sum of centres and spreads (-23.217959,  7.481406,  9.299802 )   115.56923018

     11    -0.435E+01     2.5977061632      115.5692301791       0.02  <-- CONV
        O_D=     68.5664940 O_OD=     26.1615713 O_TOT=    115.5692302 <-- SPRD
 Delta: O_D= -0.3559086E+01 O_OD= -0.7879295E+00 O_TOT= -0.4347015E+01 <-- DLTA
 ------------------------------------------------------------------------------
 Cycle:     12
  WF centre and spread    1  ( -8.869604,  4.019770,  3.973087 )    11.10613187
  WF centre and spread    2  ( -1.840730, -1.349930,  0.083820 )    85.05114665
  WF centre and spread    3  ( -6.053148,  1.459362,  4.260588 )    13.42781221
  WF centre and spread    4  ( -6.365991,  3.606663,  1.394873 )     8.71912471
  Sum of centres and spreads (-23.129473,  7.735865,  9.712369 )   118.30421544

     12     0.273E+01     2.1399188473      118.3042154389       0.02  <-- CONV
        O_D=     68.3859718 O_OD=     29.0770787 O_TOT=    118.3042154 <-- SPRD
 Delta: O_D= -0.1805221E+00 O_OD=  0.2915507E+01 O_TOT=  0.2734985E+01 <-- DLTA
 ------------------------------------------------------------------------------
 Cycle:     13
  WF centre and spread    1  ( -8.850141,  4.041661,  3.993546 )    11.18341330
  WF centre and spread    2  ( -1.915501, -1.441644, -0.000194 )    81.49934345
  WF centre and spread    3  ( -6.038964,  1.455263,  4.277325 )    13.44984822
  WF centre and spread    4  ( -6.364534,  3.611475,  1.394311 )     8.71683238
  Sum of centres and spreads (-23.169140,  7.666755,  9.664988 )   114.84943735

     13    -0.345E+01     7.0581289432      114.8494373458       0.02  <-- CONV
        O_D=     64.7390909 O_OD=     29.2691815 O_TOT=    114.8494373 <-- SPRD
 Delta: O_D= -0.3646881E+01 O_OD=  0.1921029E+00 O_TOT= -0.3454778E+01 <-- DLTA
 ------------------------------------------------------------------------------
 Cycle:     14
  WF centre and spread    1  ( -8.794508,  4.066294,  4.019534 )    12.33033940
  WF centre and spread    2  ( -1.992020, -1.571955,  0.067843 )    74.17520749
  WF centre and spread    3  ( -6.022017,  1.462324,  4.285764 )    14.24325656
  WF centre and spread    4  ( -6.374336,  3.614652,  1.370558 )     9.15976451
  Sum of centres and spreads (-23.182881,  7.571314,  9.743699 )   109.90856797

     14    -0.494E+01     2.9545514607      109.9085679659       0.03  <-- CONV
        O_D=     57.1170323 O_OD=     31.9503707 O_TOT=    109.9085680 <-- SPRD
 Delta: O_D= -0.7622059E+01 O_OD=  0.2681189E+01 O_TOT= -0.4940869E+01 <-- DLTA
 ------------------------------------------------------------------------------
 Cycle:     15
  WF centre and spread    1  ( -8.540540,  3.651188,  3.466774 )    30.28876926
  WF centre and spread    2  ( -1.969823, -2.648526,  0.841967 )    65.85512524
  WF centre and spread    3  ( -6.187526,  1.528422,  4.198801 )    24.04656212
  WF centre and spread    4  ( -6.595764,  3.502921,  1.179094 )    18.25044540
  Sum of centres and spreads (-23.293654,  6.034006,  9.686637 )   138.44090203

     15     0.285E+02     2.7170196146      138.4409020268       0.03  <-- CONV
        O_D=     63.0153099 O_OD=     54.5844272 O_TOT=    138.4409020 <-- SPRD
 Delta: O_D=  0.5898278E+01 O_OD=  0.2263406E+02 O_TOT=  0.2853233E+02 <-- DLTA
 ------------------------------------------------------------------------------
 Cycle:     16
  WF centre and spread    1  ( -8.598140,  3.641230,  3.441676 )    28.22264783
  WF centre and spread    2  ( -2.130897, -2.462841,  0.868189 )    55.76876134
  WF centre and spread    3  ( -6.168616,  1.512760,  4.210348 )    21.26079546
  WF centre and spread    4  ( -6.626939,  3.498260,  1.194998 )    17.69350625
  Sum of centres and spreads (-23.524592,  6.189409,  9.715210 )   122.94571087

     16    -0.155E+02    11.5934106130      122.9457108716       0.03  <-- CONV
        O_D=     49.5461705 O_OD=     52.5583755 O_TOT=    122.9457109 <-- SPRD
 Delta: O_D= -0.1346914E+02 O_OD= -0.2026052E+01 O_TOT= -0.1549519E+02 <-- DLTA
 ------------------------------------------------------------------------------
 Cycle:     17
  WF centre and spread    1  ( -8.739702,  3.624312,  3.316639 )    26.21811289
  WF centre and spread    2  ( -2.139411, -2.274296,  0.941494 )    44.13678579
  WF centre and spread    3  ( -6.176387,  1.461989,  4.244526 )    16.48177244
  WF centre and spread    4  ( -6.704574,  3.454585,  1.229837 )    16.62573357
  Sum of centres and spreads (-23.760074,  6.266589,  9.732495 )   103.46240469

     17    -0.195E+02     6.4511151473      103.4624046920       0.03  <-- CONV
        O_D=     37.2648456 O_OD=     45.3563941 O_TOT=    103.4624047 <-- SPRD
 Delta: O_D= -0.1228132E+02 O_OD= -0.7201981E+01 O_TOT= -0.1948331E+02 <-- DLTA
 ------------------------------------------------------------------------------
 Cycle:     18
  WF centre and spread    1  ( -8.651161,  3.570393,  3.380141 )    22.97217242
  WF centre and spread    2  ( -2.177328, -2.173619,  1.001765 )    36.78732740
  WF centre and spread    3  ( -6.187096,  1.393052,  4.187497 )    14.32392784
  WF centre and spread    4  ( -6.691895,  3.409003,  1.176879 )    16.58192697
  Sum of centres and spreads (-23.707480,  6.198828,  9.746281 )    90.66535463

     18    -0.128E+02     4.4782772635       90.6653546308       0.03  <-- CONV
        O_D=     29.0683008 O_OD=     40.7558889 O_TOT=     90.6653546 <-- SPRD
 Delta: O_D= -0.8196545E+01 O_OD= -0.4600505E+01 O_TOT= -0.1279705E+02 <-- DLTA
 ------------------------------------------------------------------------------
 Cycle:     19
  WF centre and spread    1  ( -8.710565,  3.634215,  3.348991 )    22.16169770
  WF centre and spread    2  ( -2.210390, -2.171507,  1.036910 )    35.01223602
  WF centre and spread    3  ( -6.194084,  1.380878,  4.172185 )    14.33374765
  WF centre and spread    4  ( -6.702101,  3.409391,  1.143163 )    17.16291666
  Sum of centres and spreads (-23.817140,  6.252977,  9.701249 )    88.67059803

     19    -0.199E+01     5.6016590373       88.6705980254       0.03  <-- CONV
        O_D=     26.6246550 O_OD=     41.2047781 O_TOT=     88.6705980 <-- SPRD
 Delta: O_D= -0.2443646E+01 O_OD=  0.4488892E+00 O_TOT= -0.1994757E+01 <-- DLTA
 ------------------------------------------------------------------------------
 Cycle:     20
  WF centre and spread    1  ( -8.598017,  3.601623,  3.250575 )    29.93355113
  WF centre and spread    2  ( -2.498581, -2.051784,  1.551205 )    25.45587923
  WF centre and spread    3  ( -6.248036,  1.335531,  4.114733 )    18.12541736
  WF centre and spread    4  ( -6.214424,  2.686310,  0.926841 )    41.96368318
  Sum of centres and spreads (-23.559058,  5.571679,  9.843355 )   115.47853090

     20     0.268E+02     4.5631212898      115.4785309026       0.04  <-- CONV
        O_D=     44.2446346 O_OD=     50.3927314 O_TOT=    115.4785309 <-- SPRD
 Delta: O_D=  0.1761998E+02 O_OD=  0.9187953E+01 O_TOT=  0.2680793E+02 <-- DLTA
 ------------------------------------------------------------------------------
 Cycle:     21
  WF centre and spread    1  ( -8.601200,  3.592451,  3.271800 )    28.93779450
  WF centre and spread    2  ( -2.502226, -2.066925,  1.544851 )    24.88924268
  WF centre and spread    3  ( -6.225895,  1.329081,  4.088089 )    17.80994270
  WF centre and spread    4  ( -6.412962,  2.769698,  1.012881 )    34.66468022
  Sum of centres and spreads (-23.742283,  5.624305,  9.917621 )   106.30166010

     21    -0.918E+01    16.4725215256      106.3016600961       0.04  <-- CONV
        O_D=     36.0531944 O_OD=     49.4073007 O_TOT=    106.3016601 <-- SPRD
 Delta: O_D= -0.8191440E+01 O_OD= -0.9854306E+00 O_TOT= -0.9176871E+01 <-- DLTA
 ------------------------------------------------------------------------------
 Cycle:     22
  WF centre and spread    1  ( -8.617875,  3.587605,  3.322494 )    26.62376509
  WF centre and spread    2  ( -2.516973, -2.106180,  1.515068 )    23.01451728
  WF centre and spread    3  ( -6.212996,  1.327805,  4.024017 )    17.38443821
  WF centre and spread    4  ( -6.534113,  2.873636,  1.039421 )    28.24494212
  Sum of centres and spreads (-23.881957,  5.682866,  9.900999 )    95.26766270

     22    -0.110E+02     9.3355564507       95.2676627004       0.04  <-- CONV
        O_D=     27.8064718 O_OD=     46.6200260 O_TOT=     95.2676627 <-- SPRD
 Delta: O_D= -0.8246723E+01 O_OD= -0.2787275E+01 O_TOT= -0.1103400E+02 <-- DLTA
 ------------------------------------------------------------------------------
 Cycle:     23
  WF centre and spread    1  ( -8.627046,  3.593231,  3.349403 )    25.34645275
  WF centre and spread    2  ( -2.533303, -2.133572,  1.497305 )    21.54093133
  WF centre and spread    3  ( -6.209700,  1.286456,  4.046078 )    16.23488250
  WF centre and spread    4  ( -6.621436,  2.919233,  1.075942 )    24.23659499
  Sum of centres and spreads (-23.991485,  5.665347,  9.968728 )    87.35886156

     23    -0.791E+01     8.0359995008       87.3588615619       0.04  <-- CONV
        O_D=     22.4071003 O_OD=     44.1105964 O_TOT=     87.3588616 <-- SPRD
 Delta: O_D= -0.5399372E+01 O_OD= -0.2509430E+01 O_TOT= -0.7908801E+01 <-- DLTA
 ------------------------------------------------------------------------------
 Cycle:     24
  WF centre and spread    1  ( -8.587117,  3.591631,  3.365547 )    24.39844647
  WF centre and spread    2  ( -2.568235, -2.185080,  1.489389 )    19.59337693
  WF centre and spread    3  ( -6.304561,  1.268217,  4.062884 )    14.68142103
  WF centre and spread    4  ( -6.835145,  3.015606,  1.106801 )    18.14697940
  Sum of centres and spreads (-24.295058,  5.690374, 10.024622 )    76.82022383

     24    -0.105E+02     6.8704746260       76.8202238324       0.04  <-- CONV
        O_D=     16.2412555 O_OD=     39.7378034 O_TOT=     76.8202238 <-- SPRD
 Delta: O_D= -0.6165845E+01 O_OD= -0.4372793E+01 O_TOT= -0.1053864E+02 <-- DLTA
 ------------------------------------------------------------------------------
 Cycle:     25
  WF centre and spread    1  ( -8.228840,  3.046594,  2.881264 )    36.96384952
  WF centre and spread    2  ( -2.695711, -2.379490,  1.664812 )    17.35280806
  WF centre and spread    3  ( -6.405756,  1.252857,  4.035426 )    12.72443137
  WF centre and spread    4  ( -6.956912,  3.025785,  1.108469 )    13.38964843
  Sum of centres and spreads (-24.287218,  4.945746,  9.689972 )    80.43073738

     25     0.361E+01     3.9885645760       80.4307373849       0.04  <-- CONV
        O_D=     29.2592087 O_OD=     30.3303637 O_TOT=     80.4307374 <-- SPRD
 Delta: O_D=  0.1301795E+02 O_OD= -0.9407440E+01 O_TOT=  0.3610514E+01 <-- DLTA
 ------------------------------------------------------------------------------
 Cycle:     26
  WF centre and spread    1  ( -8.245454,  3.025134,  2.890904 )    35.97376543
  WF centre and spread    2  ( -2.756333, -2.436339,  1.718556 )    17.56775343
  WF centre and spread    3  ( -6.380812,  1.299350,  3.992367 )    12.14392064
  WF centre and spread    4  ( -6.974349,  3.011138,  1.112940 )    13.02784081
  Sum of centres and spreads (-24.356948,  4.899283,  9.714767 )    78.71328031

     26    -0.172E+01     6.2451176968       78.7132803098       0.05  <-- CONV
        O_D=     28.2631487 O_OD=     29.6089666 O_TOT=     78.7132803 <-- SPRD
 Delta: O_D= -0.9960600E+00 O_OD= -0.7213971E+00 O_TOT= -0.1717457E+01 <-- DLTA
 ------------------------------------------------------------------------------
 Cycle:     27
  WF centre and spread    1  ( -8.240152,  2.956597,  2.879179 )    32.66920913
  WF centre and spread    2  ( -2.786579, -2.579989,  1.712224 )    14.81918320
  WF centre and spread    3  ( -6.346212,  1.330116,  3.940152 )     9.87554184
  WF centre and spread    4  ( -7.004922,  3.011147,  1.112233 )    11.20798304
  Sum of centres and spreads (-24.377865,  4.717872,  9.643788 )    68.57191721

     27    -0.101E+02     4.7111263597       68.5719172108       0.05  <-- CONV
        O_D=     22.9709791 O_OD=     24.7597732 O_TOT=     68.5719172 <-- SPRD
 Delta: O_D= -0.5292170E+01 O_OD= -0.4849193E+01 O_TOT= -0.1014136E+02 <-- DLTA
 ------------------------------------------------------------------------------
 Cycle:     28
  WF centre and spread    1  ( -8.207638,  2.985776,  2.972937 )    31.19748681
  WF centre and spread    2  ( -2.852757, -2.686935,  1.710585 )    13.98026929
  WF centre and spread    3  ( -6.341070,  1.336059,  3.887755 )     8.86472819
  WF centre and spread    4  ( -7.024510,  3.020014,  1.098056 )    10.53715904
  Sum of centres and spreads (-24.425976,  4.654913,  9.669333 )    64.57964333

     28    -0.399E+01     2.6201515761       64.5796433304       0.05  <-- CONV
        O_D=     22.0962688 O_OD=     21.6422096 O_TOT=     64.5796433 <-- SPRD
 Delta: O_D= -0.8747103E+00 O_OD= -0.3117564E+01 O_TOT= -0.3992274E+01 <-- DLTA
 ------------------------------------------------------------------------------
 Cycle:     29
  WF centre and spread    1  ( -8.180103,  2.958591,  2.983888 )    31.02139062
  WF centre and spread    2  ( -2.913481, -2.809215,  1.697357 )    13.47034050
  WF centre and spread    3  ( -6.352470,  1.337469,  3.854042 )     8.02980208
  WF centre and spread    4  ( -7.046675,  3.038114,  1.077815 )    10.16129966
  Sum of centres and spreads (-24.492730,  4.524959,  9.613102 )    62.68283286

     29    -0.190E+01     2.0929202503       62.6828328601       0.05  <-- CONV
        O_D=     22.1339847 O_OD=     19.7076832 O_TOT=     62.6828329 <-- SPRD
 Delta: O_D=  0.3771592E-01 O_OD= -0.1934526E+01 O_TOT= -0.1896810E+01 <-- DLTA
 ------------------------------------------------------------------------------
 Cycle:     30
  WF centre and spread    1  ( -8.158898,  2.942143,  3.017157 )    29.87225194
  WF centre and spread    2  ( -2.955412, -2.910369,  1.681254 )    13.55071011
  WF centre and spread    3  ( -6.363375,  1.332717,  3.840392 )     7.78265854
  WF centre and spread    4  ( -7.030295,  3.075079,  1.068714 )    10.24512864
  Sum of centres and spreads (-24.507979,  4.439570,  9.607517 )    61.45074923

     30    -0.123E+01     3.1220515479       61.4507492270       0.05  <-- CONV
        O_D=     20.8941837 O_OD=     19.7154006 O_TOT=     61.4507492 <-- SPRD
 Delta: O_D= -0.1239801E+01 O_OD=  0.7717396E-02 O_TOT= -0.1232084E+01 <-- DLTA
 ------------------------------------------------------------------------------
 Cycle:     31
  WF centre and spread    1  ( -8.156255,  2.956332,  3.090671 )    28.57562084
  WF centre and spread    2  ( -2.991835, -3.016508,  1.640194 )    13.80197146
  WF centre and spread    3  ( -6.375548,  1.318668,  3.833891 )     7.81040371
  WF centre and spread    4  ( -6.976897,  3.122338,  1.063880 )    10.35949783
  Sum of centres and spreads (-24.500535,  4.380830,  9.628636 )    60.54749385

     31    -0.903E+00     2.6583568571       60.5474938472       0.06  <-- CONV
        O_D=     19.2129690 O_OD=     20.4933599 O_TOT=     60.5474938 <-- SPRD
 Delta: O_D= -0.1681215E+01 O_OD=  0.7779593E+00 O_TOT= -0.9032554E+00 <-- DLTA
 ------------------------------------------------------------------------------
 Cycle:     32
  WF centre and spread    1  ( -8.159335,  2.986845,  3.149648 )    27.88303321
  WF centre and spread    2  ( -3.022214, -3.077530,  1.609186 )    13.83097168
  WF centre and spread    3  ( -6.380454,  1.310139,  3.829994 )     7.91035422
  WF centre and spread    4  ( -6.948753,  3.163793,  1.059717 )    10.41977292
  Sum of centres and spreads (-24.510756,  4.383247,  9.648545 )    60.04413202

     32    -0.503E+00     2.9649464844       60.0441320230       0.06  <-- CONV
        O_D=     18.3798023 O_OD=     20.8231648 O_TOT=     60.0441320 <-- SPRD
 Delta: O_D= -0.8331667E+00 O_OD=  0.3298049E+00 O_TOT= -0.5033618E+00 <-- DLTA
 ------------------------------------------------------------------------------
 Cycle:     33
  WF centre and spread    1  ( -8.229161,  3.120935,  3.167112 )    28.65456739
  WF centre and spread    2  ( -3.153252, -3.168098,  1.557887 )    12.87689685
  WF centre and spread    3  ( -6.367432,  1.315679,  3.814148 )     7.16297622
  WF centre and spread    4  ( -6.979742,  3.289625,  1.063471 )     9.78606096
  Sum of centres and spreads (-24.729586,  4.558141,  9.602618 )    58.48050141

     33    -0.156E+01     3.1296868540       58.4805014096       0.06  <-- CONV
        O_D=     22.0322399 O_OD=     15.6070965 O_TOT=     58.4805014 <-- SPRD
 Delta: O_D=  0.3652438E+01 O_OD= -0.5216068E+01 O_TOT= -0.1563631E+01 <-- DLTA
 ------------------------------------------------------------------------------
 Cycle:     34
  WF centre and spread    1  ( -8.255150,  3.155423,  3.193553 )    27.74308996
  WF centre and spread    2  ( -3.176441, -3.198633,  1.526350 )    12.99193324
  WF centre and spread    3  ( -6.367377,  1.316793,  3.813495 )     7.18521395
  WF centre and spread    4  ( -6.961699,  3.308422,  1.064190 )     9.38087052
  Sum of centres and spreads (-24.760667,  4.582005,  9.597589 )    57.30110766

     34    -0.118E+01     3.6441910752       57.3011076631       0.06  <-- CONV
        O_D=     21.6867867 O_OD=     14.7731560 O_TOT=     57.3011077 <-- SPRD
 Delta: O_D= -0.3454533E+00 O_OD= -0.8339405E+00 O_TOT= -0.1179394E+01 <-- DLTA
 ------------------------------------------------------------------------------
 Cycle:     35
  WF centre and spread    1  ( -8.259677,  3.172847,  3.225552 )    27.02645660
  WF centre and spread    2  ( -3.236384, -3.260119,  1.486289 )    11.87462596
  WF centre and spread    3  ( -6.369113,  1.318624,  3.813111 )     7.25123923
  WF centre and spread    4  ( -6.921823,  3.343869,  1.071164 )     8.49818450
  Sum of centres and spreads (-24.786997,  4.575221,  9.596116 )    54.65050628

     35    -0.265E+01     3.8120247649       54.6505062784       0.06  <-- CONV
        O_D=     20.1377202 O_OD=     13.6716212 O_TOT=     54.6505063 <-- SPRD
 Delta: O_D= -0.1549067E+01 O_OD= -0.1101535E+01 O_TOT= -0.2650601E+01 <-- DLTA
 ------------------------------------------------------------------------------
 Cycle:     36
  WF centre and spread    1  ( -8.268059,  3.162453,  3.219741 )    26.73740522
  WF centre and spread    2  ( -3.256379, -3.281537,  1.483783 )    11.60182902
  WF centre and spread    3  ( -6.370622,  1.318867,  3.813109 )     7.24893582
  WF centre and spread    4  ( -6.912342,  3.353881,  1.075178 )     8.29321685
  Sum of centres and spreads (-24.807402,  4.553664,  9.591811 )    53.88138691

     36    -0.769E+00     3.8340725333       53.8813869073       0.06  <-- CONV
        O_D=     19.6504643 O_OD=     13.3897577 O_TOT=     53.8813869 <-- SPRD
 Delta: O_D= -0.4872559E+00 O_OD= -0.2818635E+00 O_TOT= -0.7691194E+00 <-- DLTA
 ------------------------------------------------------------------------------
 Cycle:     37
  WF centre and spread    1  ( -8.338528,  3.178628,  3.213173 )    26.20342956
  WF centre and spread    2  ( -3.319450, -3.340022,  1.487659 )    11.01821502
  WF centre and spread    3  ( -6.378717,  1.317470,  3.814632 )     7.10186478
  WF centre and spread    4  ( -6.896117,  3.375195,  1.092478 )     7.73251960
  Sum of centres and spreads (-24.932812,  4.531271,  9.607943 )    52.05602897

     37    -0.183E+01     2.9087506276       52.0560289710       0.07  <-- CONV
        O_D=     18.8149276 O_OD=     12.3999364 O_TOT=     52.0560290 <-- SPRD
 Delta: O_D= -0.8355367E+00 O_OD= -0.9898213E+00 O_TOT= -0.1825358E+01 <-- DLTA
 ------------------------------------------------------------------------------
 Cycle:     38
  WF centre and spread    1  ( -8.352375,  3.184288,  3.205399 )    26.09579814
  WF centre and spread    2  ( -3.392270, -3.390176,  1.487833 )    10.61738299
  WF centre and spread    3  ( -6.389215,  1.310984,  3.820516 )     6.87106849
  WF centre and spread    4  ( -6.870794,  3.406552,  1.108037 )     7.27001005
  Sum of centres and spreads (-25.004654,  4.511648,  9.621785 )    50.85425966

     38    -0.120E+01     2.3878456174       50.8542596637       0.07  <-- CONV
        O_D=     18.7666219 O_OD=     11.2464728 O_TOT=     50.8542597 <-- SPRD
 Delta: O_D= -0.4830571E-01 O_OD= -0.1153464E+01 O_TOT= -0.1201769E+01 <-- DLTA
 ------------------------------------------------------------------------------
 Cycle:     39
  WF centre and spread    1  ( -8.357231,  3.178512,  3.215408 )    25.81977061
  WF centre and spread    2  ( -3.387455, -3.402685,  1.474563 )    10.30133395
  WF centre and spread    3  ( -6.389291,  1.311132,  3.820612 )     6.82655931
  WF centre and spread    4  ( -6.867405,  3.410570,  1.109274 )     7.17143139
  Sum of centres and spreads (-25.001382,  4.497529,  9.619857 )    50.11909527

     39    -0.735E+00     3.2382310723       50.1190952656       0.07  <-- CONV
        O_D=     18.3203148 O_OD=     10.9576155 O_TOT=     50.1190953 <-- SPRD
 Delta: O_D= -0.4463071E+00 O_OD= -0.2888573E+00 O_TOT= -0.7351644E+00 <-- DLTA
 ------------------------------------------------------------------------------
 Cycle:     40
  WF centre and spread    1  ( -8.267207,  3.129163,  3.243952 )    25.82919392
  WF centre and spread    2  ( -3.456983, -3.487667,  1.474839 )     9.42428847
  WF centre and spread    3  ( -6.390891,  1.307586,  3.827808 )     6.54168750
  WF centre and spread    4  ( -6.831684,  3.450736,  1.119552 )     6.58005018
  Sum of centres and spreads (-24.946765,  4.399818,  9.666151 )    48.37522006

     40    -0.174E+01     1.9950713727       48.3752200607       0.07  <-- CONV
        O_D=     18.4617883 O_OD=      9.0722669 O_TOT=     48.3752201 <-- SPRD
 Delta: O_D=  0.1414735E+00 O_OD= -0.1885349E+01 O_TOT= -0.1743875E+01 <-- DLTA
 ------------------------------------------------------------------------------
 Cycle:     41
  WF centre and spread    1  ( -8.307922,  3.163548,  3.236645 )    25.53758792
  WF centre and spread    2  ( -3.458941, -3.485637,  1.474254 )     9.44352077
  WF centre and spread    3  ( -6.391904,  1.308933,  3.827181 )     6.55780331
  WF centre and spread    4  ( -6.830157,  3.452541,  1.119842 )     6.57080918
  Sum of centres and spreads (-24.988924,  4.439386,  9.657923 )    48.10972118

     41    -0.265E+00     3.6711075673       48.1097211759       0.07  <-- CONV
        O_D=     18.1943826 O_OD=      9.0741736 O_TOT=     48.1097212 <-- SPRD
 Delta: O_D= -0.2674057E+00 O_OD=  0.1906766E-02 O_TOT= -0.2654989E+00 <-- DLTA
 ------------------------------------------------------------------------------
 Cycle:     42
  WF centre and spread    1  ( -8.340401,  3.188060,  3.218687 )    25.42151771
  WF centre and spread    2  ( -3.472221, -3.488018,  1.468198 )     9.39275090
  WF centre and spread    3  ( -6.394701,  1.311078,  3.825559 )     6.55619215
  WF centre and spread    4  ( -6.820803,  3.462466,  1.121536 )     6.49037765
  Sum of centres and spreads (-25.028126,  4.473586,  9.633980 )    47.86083841

     42    -0.249E+00     1.2254351798       47.8608384132       0.08  <-- CONV
        O_D=     18.1086070 O_OD=      8.9110665 O_TOT=     47.8608384 <-- SPRD
 Delta: O_D= -0.8577561E-01 O_OD= -0.1631072E+00 O_TOT= -0.2488828E+00 <-- DLTA
 ------------------------------------------------------------------------------
 Cycle:     43
  WF centre and spread    1  ( -8.359775,  3.204790,  3.190003 )    25.48406937
  WF centre and spread    2  ( -3.526359, -3.523769,  1.439321 )     9.19060987
  WF centre and spread    3  ( -6.400445,  1.311189,  3.824799 )     6.48234818
  WF centre and spread    4  ( -6.776485,  3.506848,  1.130172 )     6.18878109
  Sum of centres and spreads (-25.063064,  4.499058,  9.584296 )    47.34580851

     43    -0.515E+00     0.9728003109       47.3458085072       0.08  <-- CONV
        O_D=     18.3498072 O_OD=      8.1548364 O_TOT=     47.3458085 <-- SPRD
 Delta: O_D=  0.2412002E+00 O_OD= -0.7562301E+00 O_TOT= -0.5150299E+00 <-- DLTA
 ------------------------------------------------------------------------------
 Cycle:     44
  WF centre and spread    1  ( -8.358332,  3.203395,  3.179786 )    25.42682544
  WF centre and spread    2  ( -3.569833, -3.564983,  1.409922 )     9.17463113
  WF centre and spread    3  ( -6.402753,  1.308773,  3.826601 )     6.44284072
  WF centre and spread    4  ( -6.734262,  3.547989,  1.139089 )     6.02044235
  Sum of centres and spreads (-25.065180,  4.495174,  9.555398 )    47.06473964

     44    -0.281E+00     1.4067797066       47.0647396391       0.08  <-- CONV
        O_D=     18.5962213 O_OD=      7.6273534 O_TOT=     47.0647396 <-- SPRD
 Delta: O_D=  0.2464141E+00 O_OD= -0.5274830E+00 O_TOT= -0.2810689E+00 <-- DLTA
 ------------------------------------------------------------------------------
 Cycle:     45
  WF centre and spread    1  ( -8.347049,  3.200562,  3.173848 )    25.51405262
  WF centre and spread    2  ( -3.641554, -3.645445,  1.349634 )     8.93230192
  WF centre and spread    3  ( -6.405208,  1.303594,  3.830502 )     6.44666264
  WF centre and spread    4  ( -6.668499,  3.610758,  1.154105 )     5.94588223
  Sum of centres and spreads (-25.062310,  4.469468,  9.508088 )    46.83889941

     45    -0.226E+00     2.1961610173       46.8388994146       0.08  <-- CONV
        O_D=     18.7939078 O_OD=      7.2038267 O_TOT=     46.8388994 <-- SPRD
 Delta: O_D=  0.1976865E+00 O_OD= -0.4235267E+00 O_TOT= -0.2258402E+00 <-- DLTA
 ------------------------------------------------------------------------------
 Cycle:     46
  WF centre and spread    1  ( -8.342308,  3.199397,  3.176208 )    25.52211749
  WF centre and spread    2  ( -3.661448, -3.665378,  1.356395 )     8.85581994
  WF centre and spread    3  ( -6.405672,  1.302152,  3.832265 )     6.45855008
  WF centre and spread    4  ( -6.651229,  3.627020,  1.158313 )     5.94735394
  Sum of centres and spreads (-25.060657,  4.463191,  9.523181 )    46.78384145

     46    -0.551E-01     1.9972130906       46.7838414509       0.08  <-- CONV
        O_D=     18.7963298 O_OD=      7.1463467 O_TOT=     46.7838415 <-- SPRD
 Delta: O_D=  0.2422058E-02 O_OD= -0.5748002E-01 O_TOT= -0.5505796E-01 <-- DLTA
 ------------------------------------------------------------------------------
 Cycle:     47
  WF centre and spread    1  ( -8.339771,  3.198460,  3.180838 )    25.49812475
  WF centre and spread    2  ( -3.652317, -3.676794,  1.375066 )     8.72147552
  WF centre and spread    3  ( -6.405291,  1.302113,  3.833309 )     6.44883788
  WF centre and spread    4  ( -6.648787,  3.629336,  1.158800 )     5.90970418
  Sum of centres and spreads (-25.046166,  4.453116,  9.548014 )    46.57814233

     47    -0.206E+00     2.0684638933       46.5781423326       0.09  <-- CONV
        O_D=     18.6748130 O_OD=      7.0621644 O_TOT=     46.5781423 <-- SPRD
 Delta: O_D= -0.1215168E+00 O_OD= -0.8418230E-01 O_TOT= -0.2056991E+00 <-- DLTA
 ------------------------------------------------------------------------------
 Cycle:     48
  WF centre and spread    1  ( -8.323029,  3.188443,  3.211903 )    25.43979669
  WF centre and spread    2  ( -3.659115, -3.686957,  1.414949 )     8.48132886
  WF centre and spread    3  ( -6.403905,  1.302053,  3.837358 )     6.40105473
  WF centre and spread    4  ( -6.637961,  3.639648,  1.161170 )     5.78714113
  Sum of centres and spreads (-25.024010,  4.443187,  9.625379 )    46.10932141

     48    -0.469E+00     2.0237279075       46.1093214065       0.09  <-- CONV
        O_D=     18.4987466 O_OD=      6.7694099 O_TOT=     46.1093214 <-- SPRD
 Delta: O_D= -0.1760665E+00 O_OD= -0.2927545E+00 O_TOT= -0.4688209E+00 <-- DLTA
 ------------------------------------------------------------------------------
 Cycle:     49
  WF centre and spread    1  ( -8.305015,  3.182846,  3.244789 )    25.37007253
  WF centre and spread    2  ( -3.668060, -3.699670,  1.424008 )     8.42002846
  WF centre and spread    3  ( -6.402803,  1.302415,  3.839977 )     6.37579144
  WF centre and spread    4  ( -6.627128,  3.649961,  1.163674 )     5.72529611
  Sum of centres and spreads (-25.003006,  4.435551,  9.672448 )    45.89118855

     49    -0.218E+00     2.0733680094       45.8911885478       0.09  <-- CONV
        O_D=     18.4569436 O_OD=      6.5930800 O_TOT=     45.8911885 <-- SPRD
 Delta: O_D= -0.4180298E-01 O_OD= -0.1763299E+00 O_TOT= -0.2181329E+00 <-- DLTA
 ------------------------------------------------------------------------------
 Cycle:     50
  WF centre and spread    1  ( -8.305841,  3.187091,  3.238055 )    25.38752452
  WF centre and spread    2  ( -3.683506, -3.710364,  1.416138 )     8.28144323
  WF centre and spread    3  ( -6.402687,  1.303336,  3.839533 )     6.36003412
  WF centre and spread    4  ( -6.613573,  3.662918,  1.167056 )     5.69545062
  Sum of centres and spreads (-25.005607,  4.442981,  9.660782 )    45.72445250

     50    -0.167E+00     1.3860150080       45.7244524975       0.09  <-- CONV
        O_D=     18.4416711 O_OD=      6.4416165 O_TOT=     45.7244525 <-- SPRD
 Delta: O_D= -0.1527250E-01 O_OD= -0.1514635E+00 O_TOT= -0.1667361E+00 <-- DLTA
 ------------------------------------------------------------------------------
 Cycle:     51
  WF centre and spread    1  ( -8.310177,  3.193148,  3.225099 )    25.31780135
  WF centre and spread    2  ( -3.698654, -3.718952,  1.403124 )     8.21718519
  WF centre and spread    3  ( -6.402861,  1.304226,  3.838516 )     6.35664329
  WF centre and spread    4  ( -6.602084,  3.673868,  1.170040 )     5.68700160
  Sum of centres and spreads (-25.013776,  4.452290,  9.636779 )    45.57863143

     51    -0.146E+00     1.7727890500       45.5786314298       0.09  <-- CONV
        O_D=     18.3841192 O_OD=      6.3533473 O_TOT=     45.5786314 <-- SPRD
 Delta: O_D= -0.5755189E-01 O_OD= -0.8826918E-01 O_TOT= -0.1458211E+00 <-- DLTA
 ------------------------------------------------------------------------------
 Cycle:     52
  WF centre and spread    1  ( -8.319673,  3.198345,  3.205238 )    25.30309604
  WF centre and spread    2  ( -3.711842, -3.727014,  1.389049 )     8.18008563
  WF centre and spread    3  ( -6.403297,  1.304489,  3.837196 )     6.34050303
  WF centre and spread    4  ( -6.592329,  3.683129,  1.172690 )     5.67341718
  Sum of centres and spreads (-25.027141,  4.458949,  9.604172 )    45.49710188

     52    -0.815E-01     0.9909879326       45.4971018783       0.09  <-- CONV
        O_D=     18.3853397 O_OD=      6.2705972 O_TOT=     45.4971019 <-- SPRD
 Delta: O_D=  0.1220527E-02 O_OD= -0.8275008E-01 O_TOT= -0.8152955E-01 <-- DLTA
 ------------------------------------------------------------------------------
 Cycle:     53
  WF centre and spread    1  ( -8.317828,  3.196688,  3.207658 )    25.29226167
  WF centre and spread    2  ( -3.713514, -3.728546,  1.387251 )     8.15695475
  WF centre and spread    3  ( -6.403268,  1.304353,  3.837301 )     6.33431743
  WF centre and spread    4  ( -6.591185,  3.684199,  1.173013 )     5.66920158
  Sum of centres and spreads (-25.025797,  4.456693,  9.605223 )    45.45273544

     53    -0.444E-01     1.3167502850       45.4527354400       0.10  <-- CONV
        O_D=     18.3548941 O_OD=      6.2566764 O_TOT=     45.4527354 <-- SPRD
 Delta: O_D= -0.3044562E-01 O_OD= -0.1392082E-01 O_TOT= -0.4436644E-01 <-- DLTA
 ------------------------------------------------------------------------------
 Cycle:     54
  WF centre and spread    1  ( -8.298984,  3.164576,  3.214431 )    25.43389314
  WF centre and spread    2  ( -3.733516, -3.762736,  1.370829 )     8.05322178
  WF centre and spread    3  ( -6.403198,  1.301699,  3.838589 )     6.20646366
  WF centre and spread    4  ( -6.566363,  3.707418,  1.180425 )     5.62254709
  Sum of centres and spreads (-25.002059,  4.410956,  9.604273 )    45.31612567

     54    -0.137E+00     0.8030605208       45.3161256666       0.10  <-- CONV
        O_D=     18.5112544 O_OD=      5.9637063 O_TOT=     45.3161257 <-- SPRD
 Delta: O_D=  0.1563603E+00 O_OD= -0.2929701E+00 O_TOT= -0.1366098E+00 <-- DLTA
 ------------------------------------------------------------------------------
 Cycle:     55
  WF centre and spread    1  ( -8.314095,  3.180697,  3.213955 )    25.30124176
  WF centre and spread    2  ( -3.734728, -3.760391,  1.368610 )     8.07717716
  WF centre and spread    3  ( -6.403314,  1.301960,  3.838526 )     6.20931244
  WF centre and spread    4  ( -6.565801,  3.707942,  1.180579 )     5.62192282
  Sum of centres and spreads (-25.017938,  4.430208,  9.601670 )    45.20965418

     55    -0.106E+00     2.7338966732       45.2096541835       0.10  <-- CONV
        O_D=     18.4025589 O_OD=      5.9659303 O_TOT=     45.2096542 <-- SPRD
 Delta: O_D= -0.1086955E+00 O_OD=  0.2224036E-02 O_TOT= -0.1064715E+00 <-- DLTA
 ------------------------------------------------------------------------------
 Cycle:     56
  WF centre and spread    1  ( -8.322901,  3.192239,  3.210932 )    25.27319427
  WF centre and spread    2  ( -3.736703, -3.755973,  1.367309 )     8.02637927
  WF centre and spread    3  ( -6.403436,  1.302246,  3.838462 )     6.20806087
  WF centre and spread    4  ( -6.564336,  3.709317,  1.181025 )     5.61962538
  Sum of centres and spreads (-25.027376,  4.447829,  9.597727 )    45.12725979

     56    -0.824E-01     1.6607992304       45.1272597898       0.10  <-- CONV
        O_D=     18.3279332 O_OD=      5.9581616 O_TOT=     45.1272598 <-- SPRD
 Delta: O_D= -0.7462569E-01 O_OD= -0.7768707E-02 O_TOT= -0.8239439E-01 <-- DLTA
 ------------------------------------------------------------------------------
 Cycle:     57
  WF centre and spread    1  ( -8.324431,  3.196957,  3.212062 )    25.25644989
  WF centre and spread    2  ( -3.737915, -3.754837,  1.366093 )     8.02075253
  WF centre and spread    3  ( -6.403406,  1.302314,  3.838550 )     6.19951864
  WF centre and spread    4  ( -6.562402,  3.711120,  1.181625 )     5.61637745
  Sum of centres and spreads (-25.028155,  4.455554,  9.598330 )    45.09309851

     57    -0.342E-01     0.9764394866       45.0930985129       0.10  <-- CONV
        O_D=     18.3133118 O_OD=      5.9386218 O_TOT=     45.0930985 <-- SPRD
 Delta: O_D= -0.1462142E-01 O_OD= -0.1953986E-01 O_TOT= -0.3416128E-01 <-- DLTA
 ------------------------------------------------------------------------------
 Cycle:     58
  WF centre and spread    1  ( -8.321140,  3.198207,  3.212377 )    25.25839101
  WF centre and spread    2  ( -3.739177, -3.755874,  1.366207 )     8.01283481
  WF centre and spread    3  ( -6.403274,  1.302199,  3.838778 )     6.17948942
  WF centre and spread    4  ( -6.558750,  3.714522,  1.182784 )     5.61043324
  Sum of centres and spreads (-25.022341,  4.459054,  9.600146 )    45.06114848

     58    -0.320E-01     0.8305939296       45.0611484757       0.11  <-- CONV
        O_D=     18.3246350 O_OD=      5.8953486 O_TOT=     45.0611485 <-- SPRD
 Delta: O_D=  0.1132316E-01 O_OD= -0.4327319E-01 O_TOT= -0.3195004E-01 <-- DLTA
 ------------------------------------------------------------------------------
 Cycle:     59
  WF centre and spread    1  ( -8.311467,  3.198444,  3.216123 )    25.31495017
  WF centre and spread    2  ( -3.743004, -3.763565,  1.364789 )     7.97171280
  WF centre and spread    3  ( -6.403018,  1.301774,  3.839316 )     6.13331112
  WF centre and spread    4  ( -6.550196,  3.722484,  1.185572 )     5.59858047
  Sum of centres and spreads (-25.007683,  4.459138,  9.605800 )    45.01855456

     59    -0.426E-01     1.0174582606       45.0185545565       0.11  <-- CONV
        O_D=     18.3833293 O_OD=      5.7940603 O_TOT=     45.0185546 <-- SPRD
 Delta: O_D=  0.5869430E-01 O_OD= -0.1012882E+00 O_TOT= -0.4259392E-01 <-- DLTA
 ------------------------------------------------------------------------------
 Cycle:     60
  WF centre and spread    1  ( -8.311983,  3.196448,  3.214343 )    25.26879871
  WF centre and spread    2  ( -3.744001, -3.764173,  1.364458 )     7.98535722
  WF centre and spread    3  ( -6.403043,  1.301742,  3.839308 )     6.13141517
  WF centre and spread    4  ( -6.549831,  3.722830,  1.185691 )     5.59813903
  Sum of centres and spreads (-25.008858,  4.456847,  9.603799 )    44.98371013

     60    -0.348E-01     1.7889489788       44.9837101268       0.11  <-- CONV
        O_D=     18.3528601 O_OD=      5.7896851 O_TOT=     44.9837101 <-- SPRD
 Delta: O_D= -0.3046923E-01 O_OD= -0.4375198E-02 O_TOT= -0.3484443E-01 <-- DLTA
 ------------------------------------------------------------------------------
 Cycle:     61
  WF centre and spread    1  ( -8.319002,  3.190873,  3.209922 )    25.26133084
  WF centre and spread    2  ( -3.751630, -3.771200,  1.360378 )     7.93821489
  WF centre and spread    3  ( -6.403206,  1.301477,  3.839300 )     6.11831253
  WF centre and spread    4  ( -6.546984,  3.725516,  1.186629 )     5.59488089
  Sum of centres and spreads (-25.020822,  4.446666,  9.596228 )    44.91273916

     61    -0.710E-01     1.1280659434       44.9127391603       0.11  <-- CONV
        O_D=     18.3097389 O_OD=      5.7618353 O_TOT=     44.9127392 <-- SPRD
 Delta: O_D= -0.4312117E-01 O_OD= -0.2784980E-01 O_TOT= -0.7097097E-01 <-- DLTA
 ------------------------------------------------------------------------------
 Cycle:     62
  WF centre and spread    1  ( -7.977236,  3.095179,  3.129215 )    35.91022132
  WF centre and spread    2  ( -3.791303, -3.790447,  1.357053 )     7.84917009
  WF centre and spread    3  ( -6.403066,  1.299947,  3.840600 )     5.95369404
  WF centre and spread    4  ( -6.517969,  3.752504,  1.197260 )     5.56513358
  Sum of centres and spreads (-24.689574,  4.357183,  9.524128 )    55.27821903

     62     0.104E+02     0.6053289960       55.2782190326       0.11  <-- CONV
        O_D=     28.9965431 O_OD=      5.4405110 O_TOT=     55.2782190 <-- SPRD
 Delta: O_D=  0.1068680E+02 O_OD= -0.3213243E+00 O_TOT=  0.1036548E+02 <-- DLTA
 ------------------------------------------------------------------------------
 Cycle:     63
  WF centre and spread    1  ( -7.699969,  2.890707,  2.888001 )    42.04813437
  WF centre and spread    2  ( -3.453725, -3.506697,  0.757206 )    24.88035212
  WF centre and spread    3  ( -6.405630,  1.298072,  3.838692 )     6.28697409
  WF centre and spread    4  ( -6.518179,  3.751698,  1.196357 )     5.71887385
  Sum of centres and spreads (-24.077502,  4.433780,  8.680256 )    78.93433443

     63     0.237E+02   389.1080786546       78.9343344297       0.11  <-- CONV
        O_D=     52.3621411 O_OD=      5.7310284 O_TOT=     78.9343344 <-- SPRD
 Delta: O_D=  0.2336560E+02 O_OD=  0.2905174E+00 O_TOT=  0.2365612E+02 <-- DLTA
 ------------------------------------------------------------------------------
 Cycle:     64
  WF centre and spread    1  ( -7.705297,  2.911238,  2.872653 )    39.67954211
  WF centre and spread    2  ( -3.647712, -3.381390,  0.934349 )    20.02067147
  WF centre and spread    3  ( -6.398575,  1.305415,  3.830077 )     6.28145014
  WF centre and spread    4  ( -6.506106,  3.762995,  1.195403 )     5.83802087
  Sum of centres and spreads (-24.257689,  4.598258,  8.832482 )    71.81968458

     64    -0.711E+01     4.1271762717       71.8196845839       0.12  <-- CONV
        O_D=     45.3597386 O_OD=      5.6187810 O_TOT=     71.8196846 <-- SPRD
 Delta: O_D= -0.7002402E+01 O_OD= -0.1122474E+00 O_TOT= -0.7114650E+01 <-- DLTA
 ------------------------------------------------------------------------------
 Cycle:     65
  WF centre and spread    1  ( -7.589548,  2.773952,  2.712728 )    41.97994555
  WF centre and spread    2  ( -3.633894, -3.453208,  0.950587 )    17.66553437
  WF centre and spread    3  ( -6.396369,  1.320280,  3.823747 )     6.50870553
  WF centre and spread    4  ( -6.487864,  3.785871,  1.198089 )     6.06853178
  Sum of centres and spreads (-24.107675,  4.426896,  8.685150 )    72.22271723

     65     0.403E+00     2.6165794711       72.2227172281       0.12  <-- CONV
        O_D=     44.1452674 O_OD=      7.2362849 O_TOT=     72.2227172 <-- SPRD
 Delta: O_D= -0.1214471E+01 O_OD=  0.1617504E+01 O_TOT=  0.4030326E+00 <-- DLTA
 ------------------------------------------------------------------------------
 Cycle:     66
  WF centre and spread    1  ( -7.589671,  2.774016,  2.712740 )    41.97373441
  WF centre and spread    2  ( -3.633890, -3.453353,  0.950644 )    17.66346872
  WF centre and spread    3  ( -6.396368,  1.320294,  3.823747 )     6.50917081
  WF centre and spread    4  ( -6.487835,  3.785903,  1.198097 )     6.06888052
  Sum of centres and spreads (-24.107765,  4.426860,  8.685227 )    72.21525445

     66    -0.746E-02     2.9417374537       72.2152544542       0.12  <-- CONV
        O_D=     44.1347545 O_OD=      7.2393350 O_TOT=     72.2152545 <-- SPRD
 Delta: O_D= -0.1051291E-01 O_OD=  0.3050133E-02 O_TOT= -0.7462774E-02 <-- DLTA
 ------------------------------------------------------------------------------
 Cycle:     67
  WF centre and spread    1  ( -7.590154,  2.774290,  2.712765 )    41.94305095
  WF centre and spread    2  ( -3.633844, -3.453947,  0.950932 )    17.64741323
  WF centre and spread    3  ( -6.396379,  1.320302,  3.823762 )     6.51002870
  WF centre and spread    4  ( -6.487754,  3.785984,  1.198128 )     6.06954970
  Sum of centres and spreads (-24.108131,  4.426629,  8.685588 )    72.17004257

     67    -0.452E-01     2.9422624920       72.1700425688       0.12  <-- CONV
        O_D=     44.0826424 O_OD=      7.2462352 O_TOT=     72.1700426 <-- SPRD
 Delta: O_D= -0.5211207E-01 O_OD=  0.6900187E-02 O_TOT= -0.4521189E-01 <-- DLTA
 ------------------------------------------------------------------------------
 Cycle:     68
  WF centre and spread    1  ( -7.591216,  2.774915,  2.712799 )    41.87024927
  WF centre and spread    2  ( -3.633722, -3.455274,  0.951640 )    17.60440015
  WF centre and spread    3  ( -6.396418,  1.320276,  3.823812 )     6.51096341
  WF centre and spread    4  ( -6.487613,  3.786115,  1.198193 )     6.07032607
  Sum of centres and spreads (-24.108969,  4.426033,  8.686445 )    72.05593891

     68    -0.114E+00     2.9399508331       72.0559389147       0.12  <-- CONV
        O_D=     43.9585103 O_OD=      7.2562637 O_TOT=     72.0559389 <-- SPRD
 Delta: O_D= -0.1241322E+00 O_OD=  0.1002851E-01 O_TOT= -0.1141037E+00 <-- DLTA
 ------------------------------------------------------------------------------
 Cycle:     69
  WF centre and spread    1  ( -7.655044,  2.553993,  2.889924 )    45.51352197
  WF centre and spread    2  ( -3.666352, -3.652779,  1.172235 )    15.85682530
  WF centre and spread    3  ( -6.415368,  1.298124,  3.845057 )     6.98161942
  WF centre and spread    4  ( -6.474159,  3.795809,  1.216759 )     6.23864079
  Sum of centres and spreads (-24.210923,  3.995147,  9.123974 )    74.59060747

     69     0.253E+01     2.9312108679       74.5906074703       0.13  <-- CONV
        O_D=     45.3731344 O_OD=      8.3763081 O_TOT=     74.5906075 <-- SPRD
 Delta: O_D=  0.1414624E+01 O_OD=  0.1120044E+01 O_TOT=  0.2534669E+01 <-- DLTA
 ------------------------------------------------------------------------------
 Cycle:     70
  WF centre and spread    1  ( -7.655065,  2.554119,  2.889930 )    45.51387776
  WF centre and spread    2  ( -3.666378, -3.652850,  1.172234 )    15.85422321
  WF centre and spread    3  ( -6.415356,  1.298113,  3.845064 )     6.98128461
  WF centre and spread    4  ( -6.474131,  3.795833,  1.216782 )     6.23849853
  Sum of centres and spreads (-24.210929,  3.995216,  9.124010 )    74.58788411

     70    -0.272E-02     4.6178164833       74.5878841122       0.13  <-- CONV
        O_D=     45.3701052 O_OD=      8.3766140 O_TOT=     74.5878841 <-- SPRD
 Delta: O_D= -0.3029229E-02 O_OD=  0.3058704E-03 O_TOT= -0.2723358E-02 <-- DLTA
 ------------------------------------------------------------------------------
 Cycle:     71
  WF centre and spread    1  ( -7.673459,  2.573238,  2.896805 )    42.34942783
  WF centre and spread    2  ( -3.841870, -3.837089,  1.335184 )    10.95641274
  WF centre and spread    3  ( -6.406884,  1.291475,  3.842603 )     6.55847120
  WF centre and spread    4  ( -6.458846,  3.807652,  1.227443 )     6.02345722
  Sum of centres and spreads (-24.381059,  3.835276,  9.302035 )    65.88776900

     71    -0.870E+01     4.6164332316       65.8877689985       0.13  <-- CONV
        O_D=     37.9178332 O_OD=      7.1287708 O_TOT=     65.8877690 <-- SPRD
 Delta: O_D= -0.7452272E+01 O_OD= -0.1247843E+01 O_TOT= -0.8700115E+01 <-- DLTA
 ------------------------------------------------------------------------------
 Cycle:     72
  WF centre and spread    1  ( -7.361862,  2.252049,  2.578630 )    47.83758973
  WF centre and spread    2  ( -3.844099, -3.839611,  1.323891 )     9.09542388
  WF centre and spread    3  ( -6.402980,  1.284533,  3.839478 )     6.26610528
  WF centre and spread    4  ( -6.447521,  3.817163,  1.236985 )     5.86371148
  Sum of centres and spreads (-24.056463,  3.514134,  8.978984 )    69.06283036

     72     0.318E+01     3.6502143022       69.0628303630       0.13  <-- CONV
        O_D=     42.4502760 O_OD=      5.7713894 O_TOT=     69.0628304 <-- SPRD
 Delta: O_D=  0.4532443E+01 O_OD= -0.1357381E+01 O_TOT=  0.3175061E+01 <-- DLTA
 ------------------------------------------------------------------------------
 Cycle:     73
  WF centre and spread    1  ( -7.368944,  2.254130,  2.580184 )    46.08671788
  WF centre and spread    2  ( -3.845665, -3.844691,  1.311409 )     8.42380106
  WF centre and spread    3  ( -6.402506,  1.283092,  3.839191 )     6.14901977
  WF centre and spread    4  ( -6.440983,  3.824511,  1.244778 )     5.82600201
  Sum of centres and spreads (-24.058098,  3.517042,  8.975563 )    66.48554072

     73    -0.258E+01     3.3213844112       66.4855407165       0.13  <-- CONV
        O_D=     40.6038511 O_OD=      5.0405247 O_TOT=     66.4855407 <-- SPRD
 Delta: O_D= -0.1846425E+01 O_OD= -0.7308647E+00 O_TOT= -0.2577290E+01 <-- DLTA
 ------------------------------------------------------------------------------
 Cycle:     74
  WF centre and spread    1  ( -7.373393,  2.259123,  2.583044 )    45.34822388
  WF centre and spread    2  ( -3.849059, -3.850503,  1.303751 )     7.80802465
  WF centre and spread    3  ( -6.402914,  1.284408,  3.840119 )     6.06388162
  WF centre and spread    4  ( -6.436534,  3.830514,  1.250964 )     5.81633817
  Sum of centres and spreads (-24.061901,  3.523542,  8.977878 )    65.03646832

     74    -0.145E+01     2.8389208418       65.0364683167       0.14  <-- CONV
        O_D=     39.7381244 O_OD=      4.4571790 O_TOT=     65.0364683 <-- SPRD
 Delta: O_D= -0.8657267E+00 O_OD= -0.5833457E+00 O_TOT= -0.1449072E+01 <-- DLTA
 ------------------------------------------------------------------------------
 Cycle:     75
  WF centre and spread    1  ( -7.211682,  2.091999,  2.735301 )    45.51613003
  WF centre and spread    2  ( -3.851648, -3.851144,  1.305635 )     6.34353776
  WF centre and spread    3  ( -6.404313,  1.285882,  3.843364 )     5.78275211
  WF centre and spread    4  ( -6.433703,  3.834440,  1.255182 )     5.68942531
  Sum of centres and spreads (-23.901345,  3.361177,  9.139483 )    63.33184521

     75    -0.170E+01     2.4777171361       63.3318452072       0.14  <-- CONV
        O_D=     39.6389929 O_OD=      2.8516873 O_TOT=     63.3318452 <-- SPRD
 Delta: O_D= -0.9913147E-01 O_OD= -0.1605492E+01 O_TOT= -0.1704623E+01 <-- DLTA
 ------------------------------------------------------------------------------
 Cycle:     76
  WF centre and spread    1  ( -7.211143,  2.088969,  2.730795 )    44.00002927
  WF centre and spread    2  ( -3.853405, -3.852593,  1.303827 )     6.32402369
  WF centre and spread    3  ( -6.406430,  1.287088,  3.846552 )     5.75544910
  WF centre and spread    4  ( -6.431182,  3.837505,  1.258904 )     5.69319223
  Sum of centres and spreads (-23.902159,  3.360969,  9.140078 )    61.77269430

     76    -0.156E+01     1.8837158234       61.7726942983       0.14  <-- CONV
        O_D=     38.3845713 O_OD=      2.5469581 O_TOT=     61.7726943 <-- SPRD
 Delta: O_D= -0.1254422E+01 O_OD= -0.3047293E+00 O_TOT= -0.1559151E+01 <-- DLTA
 ------------------------------------------------------------------------------
 Cycle:     77
  WF centre and spread    1  ( -7.211479,  2.087245,  2.728637 )    43.72245871
  WF centre and spread    2  ( -3.854365, -3.852684,  1.301908 )     6.05448421
  WF centre and spread    3  ( -6.407819,  1.287471,  3.848533 )     5.72812318
  WF centre and spread    4  ( -6.429036,  3.840114,  1.261687 )     5.69136254
  Sum of centres and spreads (-23.902698,  3.362146,  9.140765 )    61.19642863

     77    -0.576E+00     1.1960035261       61.1964286335       0.14  <-- CONV
        O_D=     37.9770608 O_OD=      2.3782029 O_TOT=     61.1964286 <-- SPRD
 Delta: O_D= -0.4075105E+00 O_OD= -0.1687551E+00 O_TOT= -0.5762657E+00 <-- DLTA
 ------------------------------------------------------------------------------
 Cycle:     78
  WF centre and spread    1  ( -7.213580,  2.086230,  2.726599 )    43.59563902
[...]
 Delta: O_D= -0.1903046E-13 O_OD=  0.1268697E-13 O_TOT= -0.1268697E-13 <-- DLTA
 ------------------------------------------------------------------------------
 Cycle:   4977
  WF centre and spread    1  ( -7.244033,  2.083420,  2.703158 )    43.52383691
  WF centre and spread    2  ( -3.828846, -3.857992,  1.275159 )     5.71385087
  WF centre and spread    3  ( -6.420522,  1.291225,  3.873434 )     5.75675337
  WF centre and spread    4  ( -6.416755,  3.856434,  1.286709 )     5.71105406
  Sum of centres and spreads (-23.910157,  3.373088,  9.138460 )    60.70549521

   4977     0.127E-13     0.0000000197       60.7054952051       8.69  <-- CONV
        O_D=     37.5023583 O_OD=      2.3619720 O_TOT=     60.7054952 <-- SPRD
 Delta: O_D=  0.0000000E+00 O_OD=  0.1308344E-13 O_TOT=  0.1268697E-13 <-- DLTA
 ------------------------------------------------------------------------------
 Cycle:   4978
  WF centre and spread    1  ( -7.244033,  2.083420,  2.703158 )    43.52383691
  WF centre and spread    2  ( -3.828846, -3.857992,  1.275159 )     5.71385087
  WF centre and spread    3  ( -6.420522,  1.291225,  3.873434 )     5.75675337
  WF centre and spread    4  ( -6.416755,  3.856434,  1.286709 )     5.71105406
  Sum of centres and spreads (-23.910157,  3.373088,  9.138460 )    60.70549521

   4978     0.127E-13     0.0000000197       60.7054952051       8.69  <-- CONV
        O_D=     37.5023583 O_OD=      2.3619720 O_TOT=     60.7054952 <-- SPRD
 Delta: O_D= -0.6343485E-14 O_OD=  0.1347991E-13 O_TOT=  0.1268697E-13 <-- DLTA
 ------------------------------------------------------------------------------
 Cycle:   4979
  WF centre and spread    1  ( -7.244033,  2.083420,  2.703158 )    43.52383691
  WF centre and spread    2  ( -3.828846, -3.857992,  1.275159 )     5.71385087
  WF centre and spread    3  ( -6.420522,  1.291225,  3.873434 )     5.75675337
  WF centre and spread    4  ( -6.416755,  3.856434,  1.286709 )     5.71105406
  Sum of centres and spreads (-23.910157,  3.373088,  9.138460 )    60.70549521

   4979     0.127E-13     0.0000000197       60.7054952051       8.69  <-- CONV
        O_D=     37.5023583 O_OD=      2.3619720 O_TOT=     60.7054952 <-- SPRD
 Delta: O_D=  0.6343485E-14 O_OD=  0.1110110E-13 O_TOT=  0.1268697E-13 <-- DLTA
 ------------------------------------------------------------------------------
 Cycle:   4980
  WF centre and spread    1  ( -7.244033,  2.083420,  2.703158 )    43.52383691
  WF centre and spread    2  ( -3.828846, -3.857992,  1.275159 )     5.71385087
  WF centre and spread    3  ( -6.420522,  1.291225,  3.873434 )     5.75675337
  WF centre and spread    4  ( -6.416755,  3.856434,  1.286709 )     5.71105406
  Sum of centres and spreads (-23.910157,  3.373088,  9.138460 )    60.70549521

   4980     0.000E+00     0.0000000197       60.7054952051       8.70  <-- CONV
        O_D=     37.5023583 O_OD=      2.3619720 O_TOT=     60.7054952 <-- SPRD
 Delta: O_D= -0.1903046E-13 O_OD=  0.1308344E-13 O_TOT=  0.0000000E+00 <-- DLTA
 ------------------------------------------------------------------------------
 Cycle:   4981
  WF centre and spread    1  ( -7.244033,  2.083420,  2.703158 )    43.52383691
  WF centre and spread    2  ( -3.828846, -3.857992,  1.275159 )     5.71385087
  WF centre and spread    3  ( -6.420522,  1.291225,  3.873434 )     5.75675337
  WF centre and spread    4  ( -6.416755,  3.856434,  1.286709 )     5.71105406
  Sum of centres and spreads (-23.910157,  3.373088,  9.138460 )    60.70549521

   4981     0.000E+00     0.0000000197       60.7054952051       8.70  <-- CONV
        O_D=     37.5023583 O_OD=      2.3619720 O_TOT=     60.7054952 <-- SPRD
 Delta: O_D= -0.1903046E-13 O_OD=  0.1427284E-13 O_TOT=  0.0000000E+00 <-- DLTA
 ------------------------------------------------------------------------------
 Cycle:   4982
  WF centre and spread    1  ( -7.244033,  2.083420,  2.703158 )    43.52383691
  WF centre and spread    2  ( -3.828846, -3.857992,  1.275159 )     5.71385087
  WF centre and spread    3  ( -6.420522,  1.291225,  3.873434 )     5.75675337
  WF centre and spread    4  ( -6.416755,  3.856434,  1.286709 )     5.71105406
  Sum of centres and spreads (-23.910157,  3.373088,  9.138460 )    60.70549521

   4982    -0.127E-13     0.0000000197       60.7054952051       8.70  <-- CONV
        O_D=     37.5023583 O_OD=      2.3619720 O_TOT=     60.7054952 <-- SPRD
 Delta: O_D= -0.1903046E-13 O_OD=  0.1268697E-13 O_TOT= -0.1268697E-13 <-- DLTA
 ------------------------------------------------------------------------------
 Cycle:   4983
  WF centre and spread    1  ( -7.244033,  2.083420,  2.703158 )    43.52383691
  WF centre and spread    2  ( -3.828846, -3.857992,  1.275159 )     5.71385087
  WF centre and spread    3  ( -6.420522,  1.291225,  3.873434 )     5.75675337
  WF centre and spread    4  ( -6.416755,  3.856434,  1.286709 )     5.71105406
  Sum of centres and spreads (-23.910157,  3.373088,  9.138460 )    60.70549521

   4983     0.000E+00     0.0000000197       60.7054952051       8.70  <-- CONV
        O_D=     37.5023583 O_OD=      2.3619720 O_TOT=     60.7054952 <-- SPRD
 Delta: O_D= -0.1268697E-13 O_OD=  0.1308344E-13 O_TOT=  0.0000000E+00 <-- DLTA
 ------------------------------------------------------------------------------
 Cycle:   4984
  WF centre and spread    1  ( -7.244033,  2.083420,  2.703158 )    43.52383691
  WF centre and spread    2  ( -3.828846, -3.857992,  1.275159 )     5.71385087
  WF centre and spread    3  ( -6.420522,  1.291225,  3.873434 )     5.75675337
  WF centre and spread    4  ( -6.416755,  3.856434,  1.286709 )     5.71105406
  Sum of centres and spreads (-23.910157,  3.373088,  9.138460 )    60.70549521

   4984     0.000E+00     0.0000000197       60.7054952051       8.70  <-- CONV
        O_D=     37.5023583 O_OD=      2.3619720 O_TOT=     60.7054952 <-- SPRD
 Delta: O_D= -0.6343485E-14 O_OD=  0.1149757E-13 O_TOT=  0.0000000E+00 <-- DLTA
 ------------------------------------------------------------------------------
 Cycle:   4985
  WF centre and spread    1  ( -7.244033,  2.083420,  2.703158 )    43.52383691
  WF centre and spread    2  ( -3.828846, -3.857992,  1.275159 )     5.71385087
  WF centre and spread    3  ( -6.420522,  1.291225,  3.873434 )     5.75675337
  WF centre and spread    4  ( -6.416755,  3.856434,  1.286709 )     5.71105406
  Sum of centres and spreads (-23.910157,  3.373088,  9.138460 )    60.70549521

   4985    -0.127E-13     0.0000000197       60.7054952051       8.70  <-- CONV
        O_D=     37.5023583 O_OD=      2.3619720 O_TOT=     60.7054952 <-- SPRD
 Delta: O_D= -0.2537394E-13 O_OD=  0.1665165E-13 O_TOT= -0.1268697E-13 <-- DLTA
 ------------------------------------------------------------------------------
 Cycle:   4986
  WF centre and spread    1  ( -7.244033,  2.083420,  2.703158 )    43.52383691
  WF centre and spread    2  ( -3.828846, -3.857992,  1.275159 )     5.71385087
  WF centre and spread    3  ( -6.420522,  1.291225,  3.873434 )     5.75675337
  WF centre and spread    4  ( -6.416755,  3.856434,  1.286709 )     5.71105406
  Sum of centres and spreads (-23.910157,  3.373088,  9.138460 )    60.70549521

   4986     0.127E-13     0.0000000197       60.7054952051       8.71  <-- CONV
        O_D=     37.5023583 O_OD=      2.3619720 O_TOT=     60.7054952 <-- SPRD
 Delta: O_D= -0.6343485E-14 O_OD=  0.9911696E-14 O_TOT=  0.1268697E-13 <-- DLTA
 ------------------------------------------------------------------------------
 Cycle:   4987
  WF centre and spread    1  ( -7.244033,  2.083420,  2.703158 )    43.52383691
  WF centre and spread    2  ( -3.828846, -3.857992,  1.275159 )     5.71385087
  WF centre and spread    3  ( -6.420522,  1.291225,  3.873434 )     5.75675337
  WF centre and spread    4  ( -6.416755,  3.856434,  1.286709 )     5.71105406
  Sum of centres and spreads (-23.910157,  3.373088,  9.138460 )    60.70549521

   4987     0.000E+00     0.0000000197       60.7054952051       8.71  <-- CONV
        O_D=     37.5023583 O_OD=      2.3619720 O_TOT=     60.7054952 <-- SPRD
 Delta: O_D= -0.2537394E-13 O_OD=  0.2735628E-13 O_TOT=  0.0000000E+00 <-- DLTA
 ------------------------------------------------------------------------------
 Cycle:   4988
  WF centre and spread    1  ( -7.244033,  2.083420,  2.703158 )    43.52383691
  WF centre and spread    2  ( -3.828846, -3.857992,  1.275159 )     5.71385087
  WF centre and spread    3  ( -6.420522,  1.291225,  3.873434 )     5.75675337
  WF centre and spread    4  ( -6.416755,  3.856434,  1.286709 )     5.71105406
  Sum of centres and spreads (-23.910157,  3.373088,  9.138460 )    60.70549521

   4988     0.127E-13     0.0000000197       60.7054952051       8.71  <-- CONV
        O_D=     37.5023583 O_OD=      2.3619720 O_TOT=     60.7054952 <-- SPRD
 Delta: O_D= -0.3171743E-13 O_OD=  0.2933862E-13 O_TOT=  0.1268697E-13 <-- DLTA
 ------------------------------------------------------------------------------
 Cycle:   4989
  WF centre and spread    1  ( -7.244033,  2.083420,  2.703158 )    43.52383691
  WF centre and spread    2  ( -3.828846, -3.857992,  1.275159 )     5.71385087
  WF centre and spread    3  ( -6.420522,  1.291225,  3.873434 )     5.75675337
  WF centre and spread    4  ( -6.416755,  3.856434,  1.286709 )     5.71105406
  Sum of centres and spreads (-23.910157,  3.373088,  9.138460 )    60.70549521

   4989     0.000E+00     0.0000000197       60.7054952051       8.71  <-- CONV
        O_D=     37.5023583 O_OD=      2.3619720 O_TOT=     60.7054952 <-- SPRD
 Delta: O_D= -0.1903046E-13 O_OD=  0.3251036E-13 O_TOT=  0.0000000E+00 <-- DLTA
 ------------------------------------------------------------------------------
 Cycle:   4990
  WF centre and spread    1  ( -7.244033,  2.083420,  2.703158 )    43.52383691
  WF centre and spread    2  ( -3.828846, -3.857992,  1.275159 )     5.71385087
  WF centre and spread    3  ( -6.420522,  1.291225,  3.873434 )     5.75675337
  WF centre and spread    4  ( -6.416755,  3.856434,  1.286709 )     5.71105406
  Sum of centres and spreads (-23.910157,  3.373088,  9.138460 )    60.70549521

   4990     0.000E+00     0.0000000197       60.7054952051       8.71  <-- CONV
        O_D=     37.5023583 O_OD=      2.3619720 O_TOT=     60.7054952 <-- SPRD
 Delta: O_D= -0.4440440E-13 O_OD=  0.4440440E-13 O_TOT=  0.0000000E+00 <-- DLTA
 ------------------------------------------------------------------------------
 Cycle:   4991
  WF centre and spread    1  ( -7.244033,  2.083420,  2.703158 )    43.52383691
  WF centre and spread    2  ( -3.828846, -3.857992,  1.275159 )     5.71385087
  WF centre and spread    3  ( -6.420522,  1.291225,  3.873434 )     5.75675337
  WF centre and spread    4  ( -6.416755,  3.856434,  1.286709 )     5.71105406
  Sum of centres and spreads (-23.910157,  3.373088,  9.138460 )    60.70549521

   4991     0.000E+00     0.0000000197       60.7054952051       8.72  <-- CONV
        O_D=     37.5023583 O_OD=      2.3619720 O_TOT=     60.7054952 <-- SPRD
 Delta: O_D= -0.3171743E-13 O_OD=  0.2854568E-13 O_TOT=  0.0000000E+00 <-- DLTA
 ------------------------------------------------------------------------------
 Cycle:   4992
  WF centre and spread    1  ( -7.244033,  2.083420,  2.703158 )    43.52383691
  WF centre and spread    2  ( -3.828846, -3.857992,  1.275159 )     5.71385087
  WF centre and spread    3  ( -6.420522,  1.291225,  3.873434 )     5.75675337
  WF centre and spread    4  ( -6.416755,  3.856434,  1.286709 )     5.71105406
  Sum of centres and spreads (-23.910157,  3.373088,  9.138460 )    60.70549521

   4992    -0.127E-13     0.0000000197       60.7054952051       8.72  <-- CONV
        O_D=     37.5023583 O_OD=      2.3619720 O_TOT=     60.7054952 <-- SPRD
 Delta: O_D= -0.3806091E-13 O_OD=  0.2973509E-13 O_TOT= -0.1268697E-13 <-- DLTA
 ------------------------------------------------------------------------------
 Cycle:   4993
  WF centre and spread    1  ( -7.244033,  2.083420,  2.703158 )    43.52383691
  WF centre and spread    2  ( -3.828846, -3.857992,  1.275159 )     5.71385087
  WF centre and spread    3  ( -6.420522,  1.291225,  3.873434 )     5.75675337
  WF centre and spread    4  ( -6.416755,  3.856434,  1.286709 )     5.71105406
  Sum of centres and spreads (-23.910157,  3.373088,  9.138460 )    60.70549521

   4993     0.000E+00     0.0000000197       60.7054952051       8.72  <-- CONV
        O_D=     37.5023583 O_OD=      2.3619720 O_TOT=     60.7054952 <-- SPRD
 Delta: O_D= -0.3171743E-13 O_OD=  0.3211390E-13 O_TOT=  0.0000000E+00 <-- DLTA
 ------------------------------------------------------------------------------
 Cycle:   4994
  WF centre and spread    1  ( -7.244033,  2.083420,  2.703158 )    43.52383691
  WF centre and spread    2  ( -3.828846, -3.857992,  1.275159 )     5.71385087
  WF centre and spread    3  ( -6.420522,  1.291225,  3.873434 )     5.75675337
  WF centre and spread    4  ( -6.416755,  3.856434,  1.286709 )     5.71105406
  Sum of centres and spreads (-23.910157,  3.373088,  9.138460 )    60.70549521

   4994    -0.254E-13     0.0000000197       60.7054952051       8.72  <-- CONV
        O_D=     37.5023583 O_OD=      2.3619720 O_TOT=     60.7054952 <-- SPRD
 Delta: O_D= -0.5074788E-13 O_OD=  0.3092449E-13 O_TOT= -0.2537394E-13 <-- DLTA
 ------------------------------------------------------------------------------
 Cycle:   4995
  WF centre and spread    1  ( -7.244033,  2.083420,  2.703158 )    43.52383691
  WF centre and spread    2  ( -3.828846, -3.857992,  1.275159 )     5.71385087
  WF centre and spread    3  ( -6.420522,  1.291225,  3.873434 )     5.75675337
  WF centre and spread    4  ( -6.416755,  3.856434,  1.286709 )     5.71105406
  Sum of centres and spreads (-23.910157,  3.373088,  9.138460 )    60.70549521

   4995     0.254E-13     0.0000000197       60.7054952051       8.72  <-- CONV
        O_D=     37.5023583 O_OD=      2.3619720 O_TOT=     60.7054952 <-- SPRD
 Delta: O_D= -0.1268697E-13 O_OD=  0.2497747E-13 O_TOT=  0.2537394E-13 <-- DLTA
 ------------------------------------------------------------------------------
 Cycle:   4996
  WF centre and spread    1  ( -7.244033,  2.083420,  2.703158 )    43.52383691
  WF centre and spread    2  ( -3.828846, -3.857992,  1.275159 )     5.71385087
  WF centre and spread    3  ( -6.420522,  1.291225,  3.873434 )     5.75675337
  WF centre and spread    4  ( -6.416755,  3.856434,  1.286709 )     5.71105406
  Sum of centres and spreads (-23.910157,  3.373088,  9.138460 )    60.70549521

   4996     0.000E+00     0.0000000197       60.7054952051       8.73  <-- CONV
        O_D=     37.5023583 O_OD=      2.3619720 O_TOT=     60.7054952 <-- SPRD
 Delta: O_D= -0.4440440E-13 O_OD=  0.4836908E-13 O_TOT=  0.0000000E+00 <-- DLTA
 ------------------------------------------------------------------------------
 Cycle:   4997
  WF centre and spread    1  ( -7.244033,  2.083420,  2.703158 )    43.52383691
  WF centre and spread    2  ( -3.828846, -3.857992,  1.275159 )     5.71385087
  WF centre and spread    3  ( -6.420522,  1.291225,  3.873434 )     5.75675337
  WF centre and spread    4  ( -6.416755,  3.856434,  1.286709 )     5.71105406
  Sum of centres and spreads (-23.910157,  3.373088,  9.138460 )    60.70549521

   4997     0.000E+00     0.0000000197       60.7054952051       8.73  <-- CONV
        O_D=     37.5023583 O_OD=      2.3619720 O_TOT=     60.7054952 <-- SPRD
 Delta: O_D= -0.1903046E-13 O_OD=  0.2259867E-13 O_TOT=  0.0000000E+00 <-- DLTA
 ------------------------------------------------------------------------------
 Cycle:   4998
  WF centre and spread    1  ( -7.244033,  2.083420,  2.703158 )    43.52383691
  WF centre and spread    2  ( -3.828846, -3.857992,  1.275159 )     5.71385087
  WF centre and spread    3  ( -6.420522,  1.291225,  3.873434 )     5.75675337
  WF centre and spread    4  ( -6.416755,  3.856434,  1.286709 )     5.71105406
  Sum of centres and spreads (-23.910157,  3.373088,  9.138460 )    60.70549521

   4998     0.127E-13     0.0000000197       60.7054952051       8.73  <-- CONV
        O_D=     37.5023583 O_OD=      2.3619720 O_TOT=     60.7054952 <-- SPRD
 Delta: O_D= -0.1268697E-13 O_OD=  0.1506578E-13 O_TOT=  0.1268697E-13 <-- DLTA
 ------------------------------------------------------------------------------
 Cycle:   4999
  WF centre and spread    1  ( -7.244033,  2.083420,  2.703158 )    43.52383691
  WF centre and spread    2  ( -3.828846, -3.857992,  1.275159 )     5.71385087
  WF centre and spread    3  ( -6.420522,  1.291225,  3.873434 )     5.75675337
  WF centre and spread    4  ( -6.416755,  3.856434,  1.286709 )     5.71105406
  Sum of centres and spreads (-23.910157,  3.373088,  9.138460 )    60.70549521

   4999    -0.254E-13     0.0000000197       60.7054952051       8.73  <-- CONV
        O_D=     37.5023583 O_OD=      2.3619720 O_TOT=     60.7054952 <-- SPRD
 Delta: O_D= -0.3806091E-13 O_OD=  0.2259867E-13 O_TOT= -0.2537394E-13 <-- DLTA
 ------------------------------------------------------------------------------
 Cycle:   5000
  WF centre and spread    1  ( -7.244033,  2.083420,  2.703158 )    43.52383691
  WF centre and spread    2  ( -3.828846, -3.857992,  1.275159 )     5.71385087
  WF centre and spread    3  ( -6.420522,  1.291225,  3.873434 )     5.75675337
  WF centre and spread    4  ( -6.416755,  3.856434,  1.286709 )     5.71105406
  Sum of centres and spreads (-23.910157,  3.373088,  9.138460 )    60.70549521

   5000     0.127E-13     0.0000000197       60.7054952051       8.73  <-- CONV
        O_D=     37.5023583 O_OD=      2.3619720 O_TOT=     60.7054952 <-- SPRD
 Delta: O_D= -0.6343485E-14 O_OD=  0.1070463E-13 O_TOT=  0.1268697E-13 <-- DLTA
 ------------------------------------------------------------------------------

 Writing checkpoint file si.chk... done

 Final State
  WF centre and spread    1  ( -7.244033,  2.083420,  2.703158 )    43.52383691
  WF centre and spread    2  ( -3.828846, -3.857992,  1.275159 )     5.71385087
  WF centre and spread    3  ( -6.420522,  1.291225,  3.873434 )     5.75675337
  WF centre and spread    4  ( -6.416755,  3.856434,  1.286709 )     5.71105406
  Sum of centres and spreads (-23.910157,  3.373088,  9.138460 )    60.70549521

        Spreads (Bohr^2)       Omega I      =    20.841164939
        ================       Omega D      =    37.502358260
                               Omega OD     =     2.361972005
   Final Spread (Bohr^2)       Omega Total  =    60.705495205
 ------------------------------------------------------------------------------

 Wannier centres written to file si_centres.xyz
 Time for wannierise            8.720 (sec)

 Writing checkpoint file si.chk... done

 *---------------------------------------------------------------------------*
 |                               PLOTTING                                    |
 *---------------------------------------------------------------------------*

 Time for plotting              0.001 (sec)
 Total Execution Time           8.770 (sec)

 *===========================================================================*
 |                             TIMING INFORMATION                            |
 *===========================================================================*
 |    Tag                                                Ncalls      Time (s)|
 |---------------------------------------------------------------------------|
 |kmesh: get                                        :         1         0.030|
 |overlap: allocate                                 :         1         0.000|
 |overlap: read                                     :         1         0.012|
 |wann: main                                        :         1         8.720|
 |plot: main                                        :         1         0.001|
 *---------------------------------------------------------------------------*

 All done: wannier90 exiting
